 Entering Gaussian System, Link 0=/usr/local/Cluster-Apps/gaussian/g09/g09
 Initial command:
 /usr/local/Cluster-Apps/gaussian/g09/l1.exe "/home/ke291/rds/hpc-work/07Dec0308GDB58freqs/58518A1af/Gau-193842.inp" -scrdir="/home/ke291/rds/hpc-work/07Dec0308GDB58freqs/58518A1af/"
 Entering Link 1 = /usr/local/Cluster-Apps/gaussian/g09/l1.exe PID=    193865.
  
 Copyright (c) 1988,1990,1992,1993,1995,1998,2003,2009,2013,
            Gaussian, Inc.  All Rights Reserved.
  
 This is part of the Gaussian(R) 09 program.  It is based on
 the Gaussian(R) 03 system (copyright 2003, Gaussian, Inc.),
 the Gaussian(R) 98 system (copyright 1998, Gaussian, Inc.),
 the Gaussian(R) 94 system (copyright 1995, Gaussian, Inc.),
 the Gaussian 92(TM) system (copyright 1992, Gaussian, Inc.),
 the Gaussian 90(TM) system (copyright 1990, Gaussian, Inc.),
 the Gaussian 88(TM) system (copyright 1988, Gaussian, Inc.),
 the Gaussian 86(TM) system (copyright 1986, Carnegie Mellon
 University), and the Gaussian 82(TM) system (copyright 1983,
 Carnegie Mellon University). Gaussian is a federally registered
 trademark of Gaussian, Inc.
  
 This software contains proprietary and confidential information,
 including trade secrets, belonging to Gaussian, Inc.
  
 This software is provided under written license and may be
 used, copied, transmitted, or stored only in accord with that
 written license.
  
 The following legend is applicable only to US Government
 contracts under FAR:
  
                    RESTRICTED RIGHTS LEGEND
  
 Use, reproduction and disclosure by the US Government is
 subject to restrictions as set forth in subparagraphs (a)
 and (c) of the Commercial Computer Software - Restricted
 Rights clause in FAR 52.227-19.
  
 Gaussian, Inc.
 340 Quinnipiac St., Bldg. 40, Wallingford CT 06492
  
  
 ---------------------------------------------------------------
 Warning -- This program may not be used in any manner that
 competes with the business of Gaussian, Inc. or will provide
 assistance to any competitor of Gaussian, Inc.  The licensee
 of this program is prohibited from giving any competitor of
 Gaussian, Inc. access to this program.  By using this program,
 the user acknowledges that Gaussian, Inc. is engaged in the
 business of creating and licensing software in the field of
 computational chemistry and represents and warrants to the
 licensee that it is not a competitor of Gaussian, Inc. and that
 it will not use this program in any manner prohibited above.
 ---------------------------------------------------------------
  

 Cite this work as:
 Gaussian 09, Revision D.01,
 M. J. Frisch, G. W. Trucks, H. B. Schlegel, G. E. Scuseria, 
 M. A. Robb, J. R. Cheeseman, G. Scalmani, V. Barone, B. Mennucci, 
 G. A. Petersson, H. Nakatsuji, M. Caricato, X. Li, H. P. Hratchian, 
 A. F. Izmaylov, J. Bloino, G. Zheng, J. L. Sonnenberg, M. Hada, 
 M. Ehara, K. Toyota, R. Fukuda, J. Hasegawa, M. Ishida, T. Nakajima, 
 Y. Honda, O. Kitao, H. Nakai, T. Vreven, J. A. Montgomery, Jr., 
 J. E. Peralta, F. Ogliaro, M. Bearpark, J. J. Heyd, E. Brothers, 
 K. N. Kudin, V. N. Staroverov, T. Keith, R. Kobayashi, J. Normand, 
 K. Raghavachari, A. Rendell, J. C. Burant, S. S. Iyengar, J. Tomasi, 
 M. Cossi, N. Rega, J. M. Millam, M. Klene, J. E. Knox, J. B. Cross, 
 V. Bakken, C. Adamo, J. Jaramillo, R. Gomperts, R. E. Stratmann, 
 O. Yazyev, A. J. Austin, R. Cammi, C. Pomelli, J. W. Ochterski, 
 R. L. Martin, K. Morokuma, V. G. Zakrzewski, G. A. Voth, 
 P. Salvador, J. J. Dannenberg, S. Dapprich, A. D. Daniels, 
 O. Farkas, J. B. Foresman, J. V. Ortiz, J. Cioslowski, 
 and D. J. Fox, Gaussian, Inc., Wallingford CT, 2013.
 
 ******************************************
 Gaussian 09:  ES64L-G09RevD.01 24-Apr-2013
                 7-Dec-2020 
 ******************************************
 %mem=3400MB
 %chk=58528A1af.chk
 --------------------------------
 # b3lyp/6-31g(2df,p) NoSymm Freq
 --------------------------------
 1/10=4,30=1,38=1/1,3;
 2/12=2,15=1,17=6,18=5,40=1/2;
 3/5=1,6=6,7=104,11=2,16=1,25=1,30=1,71=2,74=-5,140=1/1,2,3;
 4//1;
 5/5=2,38=5,98=1/2;
 8/6=4,10=90,11=11/1;
 11/6=1,8=1,9=11,15=111,16=1,31=1/1,2,10;
 10/6=1,31=1/2;
 6/7=2,8=2,9=2,10=2,18=1,28=1/1;
 7/8=1,10=1,25=1,30=1/1,2,3,16;
 1/10=4,30=1/3;
 99//99;
 ---------
 58528A1af
 ---------
 Symbolic Z-matrix:
 Charge =  0 Multiplicity = 1
 C                    -2.24708  -1.81137  -0.18144 
 C                    -2.25734  -0.35404   0.2815 
 N                    -1.12683   0.42827  -0.22237 
 C                    -1.40866   1.85471  -0.15986 
 C                     0.13188   0.09161   0.43954 
 C                     1.37285   0.46262  -0.39254 
 C                     2.65081   0.10391   0.31 
 C                     3.56359  -0.75096  -0.141 
 H                    -3.1594   -2.31613   0.15222 
 H                    -1.39968  -2.37394   0.22118 
 H                    -2.1993   -1.86309  -1.27301 
 H                    -3.17009   0.12059  -0.09561 
 H                    -2.32387  -0.31003   1.38693 
 H                    -0.58919   2.4279   -0.60116 
 H                    -1.55826   2.2233    0.87423 
 H                    -2.31342   2.07966  -0.73282 
 H                     0.15726  -0.98778   0.61002 
 H                     0.19991   0.56565   1.43982 
 H                     1.31268  -0.04327  -1.36173 
 H                     1.3679    1.54164  -0.5959 
 H                     2.81365   0.59154   1.27167 
 H                     3.44548  -1.2613   -1.09309 
 H                     4.4678   -0.97146   0.41667 
 

 GradGradGradGradGradGradGradGradGradGradGradGradGradGradGradGradGradGrad
 Berny optimization.
 Initialization pass.
 Trust Radius=3.00D-01 FncErr=1.00D-07 GrdErr=1.00D-07
 Number of steps in this run=      2 maximum allowed number of steps=      2.
 GradGradGradGradGradGradGradGradGradGradGradGradGradGradGradGradGradGrad

                          Input orientation:                          
 ---------------------------------------------------------------------
 Center     Atomic      Atomic             Coordinates (Angstroms)
 Number     Number       Type             X           Y           Z
 ---------------------------------------------------------------------
      1          6           0       -2.247082   -1.811368   -0.181442
      2          6           0       -2.257339   -0.354042    0.281495
      3          7           0       -1.126830    0.428269   -0.222368
      4          6           0       -1.408658    1.854705   -0.159859
      5          6           0        0.131882    0.091611    0.439537
      6          6           0        1.372853    0.462619   -0.392538
      7          6           0        2.650807    0.103907    0.310000
      8          6           0        3.563591   -0.750958   -0.141000
      9          1           0       -3.159397   -2.316133    0.152221
     10          1           0       -1.399676   -2.373939    0.221182
     11          1           0       -2.199295   -1.863087   -1.273013
     12          1           0       -3.170095    0.120586   -0.095610
     13          1           0       -2.323868   -0.310027    1.386931
     14          1           0       -0.589191    2.427905   -0.601156
     15          1           0       -1.558258    2.223299    0.874226
     16          1           0       -2.313423    2.079660   -0.732822
     17          1           0        0.157262   -0.987779    0.610018
     18          1           0        0.199905    0.565653    1.439816
     19          1           0        1.312682   -0.043274   -1.361725
     20          1           0        1.367904    1.541637   -0.595902
     21          1           0        2.813649    0.591535    1.271674
     22          1           0        3.445484   -1.261303   -1.093093
     23          1           0        4.467795   -0.971456    0.416672
 ---------------------------------------------------------------------
                    Distance matrix (angstroms):
                    1          2          3          4          5
     1  C    0.000000
     2  C    1.529122   0.000000
     3  N    2.504519   1.464220   0.000000
     4  C    3.760786   2.406993   1.455354   0.000000
     5  C    3.109086   2.435562   1.461442   2.416824   0.000000
     6  C    4.280129   3.781475   2.505704   3.119110   1.539482
     7  C    5.281961   4.929546   3.828729   4.445820   2.522284
     8  C    5.906778   5.849724   4.837070   5.613653   3.581002
     9  H    1.094732   2.163382   3.435606   4.534134   4.088068
    10  H    1.093933   2.195269   2.850184   4.245786   2.910719
    11  H    1.093840   2.167275   2.739407   3.960580   3.491140
    12  H    2.142841   1.095721   2.070186   2.472642   3.345187
    13  H    2.172490   1.108311   2.137247   2.813580   2.662626
    14  H    4.571236   3.361699   2.105013   1.093082   2.657303
    15  H    4.226991   2.735458   2.147273   1.107959   2.754927
    16  H    3.930461   2.637213   2.096583   1.094299   3.362481
    17  H    2.661875   2.517905   2.084934   3.335346   1.093065
    18  H    3.777096   2.868030   2.131186   2.609232   1.109009
    19  H    4.146220   3.942309   2.733442   3.528810   2.158015
    20  H    4.947984   4.183995   2.757320   2.827975   2.168516
    21  H    5.787615   5.252570   4.217368   4.633871   2.852061
    22  H    5.791285   5.935891   4.951653   5.843212   3.893493
    23  H    6.793583   6.754769   5.802364   6.546165   4.464390
                    6          7          8          9         10
     6  C    0.000000
     7  C    1.501799   0.000000
     8  C    2.517017   1.329425   0.000000
     9  H    5.344110   6.296027   6.909003   0.000000
    10  H    4.013680   4.749107   5.234430   1.762020   0.000000
    11  H    4.352515   5.467951   5.977386   1.777171   1.770022
    12  H    4.565471   5.835041   6.790006   2.449313   3.075288
    13  H    4.174834   5.106713   6.098456   2.499416   2.544177
    14  H    2.784868   4.090081   5.250001   5.447883   4.938707
    15  H    3.646381   4.746199   6.009178   4.867379   4.646096
    16  H    4.039709   5.443772   6.549958   4.563110   4.645385
    17  H    2.141596   2.738532   3.496168   3.601990   2.120540
    18  H    2.178060   2.737995   3.942947   4.609501   3.561591
    19  H    1.094930   2.146370   2.656610   5.239982   3.910816
    20  H    1.098026   2.129217   3.206863   5.994875   4.864037
    21  H    2.205020   1.090466   2.088145   6.736838   5.258296
    22  H    2.785405   2.112813   1.086684   6.803523   5.142067
    23  H    3.505718   2.114055   1.084990   7.749332   6.035925
                   11         12         13         14         15
    11  H    0.000000
    12  H    2.502736   0.000000
    13  H    3.082664   1.760527   0.000000
    14  H    4.632110   3.498623   3.802350   0.000000
    15  H    4.660484   2.821348   2.695694   1.776994   0.000000
    16  H    3.981217   2.231120   3.194380   1.763969   1.781435
    17  H    3.140912   3.577386   2.686810   3.700139   3.650183
    18  H    4.360548   3.729949   2.671899   2.873364   2.481697
    19  H    3.956459   4.661029   4.566264   3.209721   4.287088
    20  H    4.977503   4.781539   4.581426   2.148423   3.344901
    21  H    6.134347   6.156009   5.217296   4.296402   4.683395
    22  H    5.679617   6.831579   6.351446   5.489158   6.407045
    23  H    6.935426   7.732551   6.892429   6.177761   6.835871
                   16         17         18         19         20
    16  H    0.000000
    17  H    4.161332   0.000000
    18  H    3.650944   1.761685   0.000000
    19  H    4.248647   2.472823   3.075337   0.000000
    20  H    3.722954   3.052514   2.541833   1.761101   0.000000
    21  H    5.702577   3.160445   2.619275   3.096881   2.545724
    22  H    6.667596   3.713194   4.504129   2.470749   3.524203
    23  H    7.524331   4.314898   4.650206   3.738844   4.117070
                   21         22         23
    21  H    0.000000
    22  H    3.069910   0.000000
    23  H    2.431084   1.846218   0.000000
 Symmetry turned off by external request.
 Stoichiometry    C7H15N
 Framework group  C1[X(C7H15N)]
 Deg. of freedom    63
 Full point group                 C1      NOp   1
 Rotational constants (GHZ):      3.3291745      0.9569188      0.7920085
 Standard basis: 6-31G(2df,p) (6D, 7F)
   299 basis functions,   457 primitive gaussians,   323 cartesian basis functions
    32 alpha electrons       32 beta electrons
       nuclear repulsion energy       382.0824513712 Hartrees.
 NAtoms=   23 NActive=   23 NUniq=   23 SFac= 1.00D+00 NAtFMM=   60 NAOKFM=F Big=F
 Integral buffers will be    131072 words long.
 Raffenetti 2 integral format.
 Two-electron integral symmetry is turned off.
 One-electron integrals computed using PRISM.
 NBasis=   299 RedAO= T EigKep=  3.51D-04  NBF=   299
 NBsUse=   299 1.00D-06 EigRej= -1.00D+00 NBFU=   299
 ExpMin= 1.61D-01 ExpMax= 4.17D+03 ExpMxC= 6.27D+02 IAcc=1 IRadAn=         1 AccDes= 0.00D+00
 Harris functional with IExCor=  402 and IRadAn=       1 diagonalized for initial guess.
 HarFok:  IExCor=  402 AccDes= 0.00D+00 IRadAn=         1 IDoV= 1 UseB2=F ITyADJ=14
 ICtDFT=  3500011 ScaDFX=  1.000000  1.000000  1.000000  1.000000
 FoFCou: FMM=F IPFlag=           0 FMFlag=      100000 FMFlg1=           0
         NFxFlg=           0 DoJE=T BraDBF=F KetDBF=T FulRan=T
         wScrn=  0.000000 ICntrl=     500 IOpCl=  0 I1Cent=   200000004 NGrid=           0
         NMat0=    1 NMatS0=      1 NMatT0=    0 NMatD0=    1 NMtDS0=    0 NMtDT0=    0
 Symmetry not used in FoFCou.
 Requested convergence on RMS density matrix=1.00D-08 within 128 cycles.
 Requested convergence on MAX density matrix=1.00D-06.
 Requested convergence on             energy=1.00D-06.
 No special actions if energy rises.
 Integral accuracy reduced to 1.0D-05 until final iterations.
 Initial convergence to 1.0D-05 achieved.  Increase integral accuracy.
 SCF Done:  E(RB3LYP) =  -330.519954181     A.U. after   13 cycles
            NFock= 13  Conv=0.38D-08     -V/T= 2.0088
 DoSCS=F DFT=T ScalE2(SS,OS)=  1.000000  1.000000
 Range of M.O.s used for correlation:     1   299
 NBasis=   299 NAE=    32 NBE=    32 NFC=     0 NFV=     0
 NROrb=    299 NOA=    32 NOB=    32 NVA=   267 NVB=   267

 **** Warning!!: The largest alpha MO coefficient is  0.42424679D+02

 Symmetrizing basis deriv contribution to polar:
 IMax=3 JMax=2 DiffMx= 0.00D+00
 G2DrvN: will do    24 centers at a time, making    1 passes.
 Calling FoFCou, ICntrl=  3107 FMM=F I1Cent=   0 AccDes= 0.00D+00.
 End of G2Drv F.D. properties file   721 does not exist.
 End of G2Drv F.D. properties file   722 does not exist.
 End of G2Drv F.D. properties file   788 does not exist.
          IDoAtm=11111111111111111111111
          Differentiating once with respect to electric field.
                with respect to dipole field.
          Differentiating once with respect to nuclear coordinates.
          There are    72 degrees of freedom in the 1st order CPHF.  IDoFFX=6 NUNeed=     3.
     69 vectors produced by pass  0 Test12= 1.19D-14 1.39D-09 XBig12= 6.51D+01 4.15D+00.
 AX will form    69 AO Fock derivatives at one time.
     69 vectors produced by pass  1 Test12= 1.19D-14 1.39D-09 XBig12= 4.37D+00 4.97D-01.
     69 vectors produced by pass  2 Test12= 1.19D-14 1.39D-09 XBig12= 3.75D-02 2.41D-02.
     69 vectors produced by pass  3 Test12= 1.19D-14 1.39D-09 XBig12= 7.44D-05 9.41D-04.
     69 vectors produced by pass  4 Test12= 1.19D-14 1.39D-09 XBig12= 9.52D-08 3.79D-05.
     31 vectors produced by pass  5 Test12= 1.19D-14 1.39D-09 XBig12= 6.63D-11 7.83D-07.
      3 vectors produced by pass  6 Test12= 1.19D-14 1.39D-09 XBig12= 7.29D-14 3.51D-08.
 InvSVY:  IOpt=1 It=  1 EMax= 1.78D-15
 Solved reduced A of dimension   379 with    72 vectors.
 Isotropic polarizability for W=    0.000000       86.28 Bohr**3.
 End of Minotr F.D. properties file   721 does not exist.
 End of Minotr F.D. properties file   722 does not exist.
 End of Minotr F.D. properties file   788 does not exist.

 **********************************************************************

            Population analysis using the SCF density.

 **********************************************************************

 Alpha  occ. eigenvalues --  -14.31403 -10.20142 -10.20056 -10.19545 -10.18279
 Alpha  occ. eigenvalues --  -10.17943 -10.17125 -10.17053  -0.91484  -0.79174
 Alpha  occ. eigenvalues --   -0.74568  -0.71799  -0.66265  -0.62268  -0.56483
 Alpha  occ. eigenvalues --   -0.54932  -0.48312  -0.46650  -0.45403  -0.44611
 Alpha  occ. eigenvalues --   -0.42219  -0.41283  -0.39230  -0.38181  -0.36431
 Alpha  occ. eigenvalues --   -0.35798  -0.34804  -0.34311  -0.33206  -0.32369
 Alpha  occ. eigenvalues --   -0.25279  -0.20818
 Alpha virt. eigenvalues --    0.02370   0.08818   0.10597   0.11834   0.12778
 Alpha virt. eigenvalues --    0.13783   0.14601   0.15353   0.15538   0.17055
 Alpha virt. eigenvalues --    0.17416   0.18117   0.19069   0.19818   0.20677
 Alpha virt. eigenvalues --    0.21612   0.23376   0.24491   0.25089   0.27133
 Alpha virt. eigenvalues --    0.27992   0.30424   0.35931   0.43497   0.45146
 Alpha virt. eigenvalues --    0.45763   0.47221   0.48581   0.49709   0.51402
 Alpha virt. eigenvalues --    0.52061   0.53909   0.55203   0.56177   0.57282
 Alpha virt. eigenvalues --    0.57861   0.59306   0.62551   0.64595   0.65323
 Alpha virt. eigenvalues --    0.66033   0.66535   0.69012   0.72229   0.72497
 Alpha virt. eigenvalues --    0.73073   0.74046   0.74771   0.75578   0.76381
 Alpha virt. eigenvalues --    0.77153   0.77785   0.78395   0.78587   0.81102
 Alpha virt. eigenvalues --    0.82220   0.82967   0.83230   0.85718   0.86758
 Alpha virt. eigenvalues --    0.87466   0.88131   0.89542   0.92088   0.94000
 Alpha virt. eigenvalues --    0.95022   1.02405   1.04339   1.09097   1.11789
 Alpha virt. eigenvalues --    1.12162   1.16151   1.16590   1.17640   1.20334
 Alpha virt. eigenvalues --    1.24179   1.25060   1.28827   1.29485   1.33223
 Alpha virt. eigenvalues --    1.37255   1.41579   1.42526   1.44908   1.47822
 Alpha virt. eigenvalues --    1.48617   1.51638   1.52879   1.55800   1.57682
 Alpha virt. eigenvalues --    1.58602   1.60963   1.62916   1.64466   1.67615
 Alpha virt. eigenvalues --    1.69891   1.71887   1.73283   1.75704   1.77448
 Alpha virt. eigenvalues --    1.79642   1.83900   1.84752   1.90590   1.90801
 Alpha virt. eigenvalues --    1.93301   1.95962   1.97767   1.98709   2.02714
 Alpha virt. eigenvalues --    2.03781   2.06151   2.11861   2.16448   2.16752
 Alpha virt. eigenvalues --    2.18270   2.23391   2.24972   2.27170   2.30115
 Alpha virt. eigenvalues --    2.30405   2.34401   2.36783   2.37579   2.41173
 Alpha virt. eigenvalues --    2.46232   2.49194   2.50991   2.55719   2.61432
 Alpha virt. eigenvalues --    2.62047   2.67047   2.70031   2.72486   2.73351
 Alpha virt. eigenvalues --    2.76700   2.77489   2.78529   2.79322   2.81556
 Alpha virt. eigenvalues --    2.82727   2.83555   2.84199   2.86438   2.86851
 Alpha virt. eigenvalues --    2.87902   2.90257   2.92116   2.92761   2.94776
 Alpha virt. eigenvalues --    2.95672   2.97387   2.97931   2.99553   3.01970
 Alpha virt. eigenvalues --    3.04153   3.05739   3.08316   3.13466   3.17893
 Alpha virt. eigenvalues --    3.19265   3.22193   3.23814   3.24961   3.26262
 Alpha virt. eigenvalues --    3.28445   3.30968   3.33269   3.35318   3.36628
 Alpha virt. eigenvalues --    3.37550   3.41324   3.42318   3.45064   3.47013
 Alpha virt. eigenvalues --    3.49989   3.52658   3.54368   3.57301   3.59505
 Alpha virt. eigenvalues --    3.60139   3.61888   3.63761   3.65048   3.67633
 Alpha virt. eigenvalues --    3.68929   3.69634   3.74126   3.77424   3.78121
 Alpha virt. eigenvalues --    3.82445   3.83629   3.86317   3.88111   3.92068
 Alpha virt. eigenvalues --    3.94451   3.98023   3.99550   4.02925   4.11383
 Alpha virt. eigenvalues --    4.14275   4.19910   4.22344   4.27900   4.31229
 Alpha virt. eigenvalues --    4.38595   4.41242   4.42858   4.44377   4.46080
 Alpha virt. eigenvalues --    4.46644   4.47966   4.48744   4.50020   4.51539
 Alpha virt. eigenvalues --    4.55256   4.56159   4.57873   4.59204   4.60289
 Alpha virt. eigenvalues --    4.61571   4.65034   4.66297   4.67121   4.68172
 Alpha virt. eigenvalues --    4.69889   4.72124   4.73021   4.75403   4.76298
 Alpha virt. eigenvalues --    4.76770   4.81750   4.83833   4.86872   4.88993
 Alpha virt. eigenvalues --    4.91750   4.92912   4.95515   4.96694   4.99759
 Alpha virt. eigenvalues --    5.06110   5.06935   5.08050   5.11306   5.17202
 Alpha virt. eigenvalues --    5.27341   5.32633   5.34352   5.37874   5.42902
 Alpha virt. eigenvalues --    5.44504   5.48258   5.55034   5.58886   5.60416
 Alpha virt. eigenvalues --    5.75314   5.80465   6.08913  10.28566  11.06954
 Alpha virt. eigenvalues --   11.42326  11.44900  11.59179  11.83764  12.06433
 Alpha virt. eigenvalues --   12.29212  15.81248
          Condensed to atoms (all electrons):
               1          2          3          4          5          6
     1  C    4.983097   0.410257  -0.039985   0.003725  -0.001225   0.000196
     2  C    0.410257   4.798991   0.394980  -0.063807  -0.054894   0.003270
     3  N   -0.039985   0.394980   6.156977   0.402739   0.382593  -0.033191
     4  C    0.003725  -0.063807   0.402739   4.962140  -0.072437  -0.001429
     5  C   -0.001225  -0.054894   0.382593  -0.072437   4.897250   0.406845
     6  C    0.000196   0.003270  -0.033191  -0.001429   0.406845   4.948120
     7  C   -0.000001  -0.000228   0.003009  -0.000022  -0.043117   0.385035
     8  C    0.000000   0.000000  -0.000008   0.000000  -0.002142  -0.009350
     9  H    0.363456  -0.021798   0.002723  -0.000177  -0.000011  -0.000003
    10  H    0.378254  -0.026972  -0.002568  -0.000004  -0.001355  -0.000246
    11  H    0.370686  -0.026809   0.003640   0.000317   0.000214  -0.000078
    12  H   -0.030825   0.366114  -0.024972  -0.007854   0.005417  -0.000244
    13  H   -0.050730   0.343544  -0.040920  -0.000890  -0.009061  -0.000107
    14  H   -0.000243   0.005604  -0.024638   0.376424  -0.001419  -0.000398
    15  H   -0.000201  -0.007011  -0.041342   0.351228  -0.007472  -0.000647
    16  H    0.000390  -0.003890  -0.024873   0.376269   0.005230   0.000063
    17  H    0.001060  -0.007694  -0.019010   0.006658   0.352000  -0.029338
    18  H   -0.000520  -0.002657  -0.039863  -0.009811   0.338780  -0.055017
    19  H   -0.000036   0.000242   0.004460   0.000316  -0.028820   0.346640
    20  H   -0.000017   0.000048  -0.002137  -0.000101  -0.038008   0.358600
    21  H    0.000000   0.000004   0.000025   0.000002  -0.001711  -0.063468
    22  H    0.000000   0.000001  -0.000004   0.000000   0.000362  -0.017197
    23  H    0.000000   0.000000   0.000001   0.000000  -0.000074   0.004970
               7          8          9         10         11         12
     1  C   -0.000001   0.000000   0.363456   0.378254   0.370686  -0.030825
     2  C   -0.000228   0.000000  -0.021798  -0.026972  -0.026809   0.366114
     3  N    0.003009  -0.000008   0.002723  -0.002568   0.003640  -0.024972
     4  C   -0.000022   0.000000  -0.000177  -0.000004   0.000317  -0.007854
     5  C   -0.043117  -0.002142  -0.000011  -0.001355   0.000214   0.005417
     6  C    0.385035  -0.009350  -0.000003  -0.000246  -0.000078  -0.000244
     7  C    4.608825   0.704178   0.000000  -0.000010   0.000008   0.000001
     8  C    0.704178   4.962934   0.000000  -0.000001   0.000000   0.000000
     9  H    0.000000   0.000000   0.603485  -0.030334  -0.027764  -0.003148
    10  H   -0.000010  -0.000001  -0.030334   0.588943  -0.033103   0.005279
    11  H    0.000008   0.000000  -0.027764  -0.033103   0.588092  -0.004774
    12  H    0.000001   0.000000  -0.003148   0.005279  -0.004774   0.640592
    13  H    0.000055   0.000000   0.002452  -0.004558   0.006500  -0.047325
    14  H   -0.000298   0.000003   0.000002   0.000007  -0.000014   0.000251
    15  H    0.000140   0.000000   0.000024  -0.000002   0.000048  -0.001003
    16  H   -0.000007   0.000000  -0.000023   0.000003  -0.000057   0.006594
    17  H    0.001180   0.002045  -0.000282   0.006055   0.000015   0.000254
    18  H    0.005229   0.000004   0.000025   0.000080   0.000099  -0.000265
    19  H   -0.017670  -0.011974   0.000001   0.000038   0.000104  -0.000004
    20  H   -0.024981   0.001393   0.000000   0.000000   0.000001   0.000007
    21  H    0.373709  -0.053306   0.000000   0.000000   0.000000   0.000000
    22  H   -0.016372   0.361053   0.000000   0.000000   0.000000   0.000000
    23  H   -0.013830   0.364620   0.000000   0.000000   0.000000   0.000000
              13         14         15         16         17         18
     1  C   -0.050730  -0.000243  -0.000201   0.000390   0.001060  -0.000520
     2  C    0.343544   0.005604  -0.007011  -0.003890  -0.007694  -0.002657
     3  N   -0.040920  -0.024638  -0.041342  -0.024873  -0.019010  -0.039863
     4  C   -0.000890   0.376424   0.351228   0.376269   0.006658  -0.009811
     5  C   -0.009061  -0.001419  -0.007472   0.005230   0.352000   0.338780
     6  C   -0.000107  -0.000398  -0.000647   0.000063  -0.029338  -0.055017
     7  C    0.000055  -0.000298   0.000140  -0.000007   0.001180   0.005229
     8  C    0.000000   0.000003   0.000000   0.000000   0.002045   0.000004
     9  H    0.002452   0.000002   0.000024  -0.000023  -0.000282   0.000025
    10  H   -0.004558   0.000007  -0.000002   0.000003   0.006055   0.000080
    11  H    0.006500  -0.000014   0.000048  -0.000057   0.000015   0.000099
    12  H   -0.047325   0.000251  -0.001003   0.006594   0.000254  -0.000265
    13  H    0.708481  -0.000439   0.010691  -0.001086  -0.000763   0.010735
    14  H   -0.000439   0.595846  -0.045088  -0.027147   0.000031  -0.001774
    15  H    0.010691  -0.045088   0.679742  -0.043172  -0.000064   0.015935
    16  H   -0.001086  -0.027147  -0.043172   0.596164  -0.000271  -0.000244
    17  H   -0.000763   0.000031  -0.000064  -0.000271   0.627839  -0.044846
    18  H    0.010735  -0.001774   0.015935  -0.000244  -0.044846   0.706190
    19  H    0.000055  -0.000083   0.000114  -0.000040  -0.005928   0.006819
    20  H   -0.000004   0.005405   0.000129  -0.000188   0.006386  -0.005138
    21  H    0.000002   0.000006   0.000009   0.000000  -0.000219   0.005030
    22  H    0.000000   0.000000   0.000000   0.000000   0.000088   0.000024
    23  H    0.000000   0.000000   0.000000   0.000000  -0.000048   0.000007
              19         20         21         22         23
     1  C   -0.000036  -0.000017   0.000000   0.000000   0.000000
     2  C    0.000242   0.000048   0.000004   0.000001   0.000000
     3  N    0.004460  -0.002137   0.000025  -0.000004   0.000001
     4  C    0.000316  -0.000101   0.000002   0.000000   0.000000
     5  C   -0.028820  -0.038008  -0.001711   0.000362  -0.000074
     6  C    0.346640   0.358600  -0.063468  -0.017197   0.004970
     7  C   -0.017670  -0.024981   0.373709  -0.016372  -0.013830
     8  C   -0.011974   0.001393  -0.053306   0.361053   0.364620
     9  H    0.000001   0.000000   0.000000   0.000000   0.000000
    10  H    0.000038   0.000000   0.000000   0.000000   0.000000
    11  H    0.000104   0.000001   0.000000   0.000000   0.000000
    12  H   -0.000004   0.000007   0.000000   0.000000   0.000000
    13  H    0.000055  -0.000004   0.000002   0.000000   0.000000
    14  H   -0.000083   0.005405   0.000006   0.000000   0.000000
    15  H    0.000114   0.000129   0.000009   0.000000   0.000000
    16  H   -0.000040  -0.000188   0.000000   0.000000   0.000000
    17  H   -0.005928   0.006386  -0.000219   0.000088  -0.000048
    18  H    0.006819  -0.005138   0.005030   0.000024   0.000007
    19  H    0.625901  -0.039253   0.006012   0.006889  -0.000021
    20  H   -0.039253   0.635287  -0.002055   0.000114  -0.000223
    21  H    0.006012  -0.002055   0.653213   0.007185  -0.009388
    22  H    0.006889   0.000114   0.007185   0.602149  -0.047012
    23  H   -0.000021  -0.000223  -0.009388  -0.047012   0.592081
 Mulliken charges:
               1
     1  C   -0.387337
     2  C   -0.107295
     3  N   -0.057636
     4  C   -0.323285
     5  C   -0.126943
     6  C   -0.243025
     7  C    0.035167
     8  C   -0.319449
     9  H    0.111373
    10  H    0.120493
    11  H    0.122876
    12  H    0.095905
    13  H    0.073369
    14  H    0.117960
    15  H    0.087944
    16  H    0.116287
    17  H    0.104854
    18  H    0.071180
    19  H    0.106238
    20  H    0.104735
    21  H    0.084950
    22  H    0.102720
    23  H    0.108918
 Sum of Mulliken charges =   0.00000
 Mulliken charges with hydrogens summed into heavy atoms:
               1
     1  C   -0.032594
     2  C    0.061980
     3  N   -0.057636
     4  C   -0.001094
     5  C    0.049090
     6  C   -0.032052
     7  C    0.120118
     8  C   -0.107811
 APT charges:
               1
     1  C    0.046932
     2  C    0.400271
     3  N   -0.649781
     4  C    0.334319
     5  C    0.386195
     6  C    0.050392
     7  C    0.081467
     8  C   -0.108576
     9  H   -0.028712
    10  H   -0.018705
    11  H   -0.013476
    12  H   -0.054653
    13  H   -0.110106
    14  H   -0.021667
    15  H   -0.092052
    16  H   -0.031426
    17  H   -0.025211
    18  H   -0.100715
    19  H   -0.030708
    20  H   -0.037266
    21  H   -0.010469
    22  H    0.018362
    23  H    0.015585
 Sum of APT charges =   0.00000
 APT charges with hydrogens summed into heavy atoms:
               1
     1  C   -0.013961
     2  C    0.235512
     3  N   -0.649781
     4  C    0.189174
     5  C    0.260269
     6  C   -0.017582
     7  C    0.070998
     8  C   -0.074629
 Electronic spatial extent (au):  <R**2>=           1528.2749
 Charge=              0.0000 electrons
 Dipole moment (field-independent basis, Debye):
    X=             -0.4429    Y=              0.2163    Z=              0.4366  Tot=              0.6585
 Quadrupole moment (field-independent basis, Debye-Ang):
   XX=            -51.5454   YY=            -51.4766   ZZ=            -52.7789
   XY=             -0.4813   XZ=              0.3508   YZ=              0.4083
 Traceless Quadrupole moment (field-independent basis, Debye-Ang):
   XX=              0.3882   YY=              0.4570   ZZ=             -0.8453
   XY=             -0.4813   XZ=              0.3508   YZ=              0.4083
 Octapole moment (field-independent basis, Debye-Ang**2):
  XXX=            -10.9956  YYY=              3.6005  ZZZ=             -1.2526  XYY=             -2.1233
  XXY=             -3.6150  XXZ=              2.2116  XZZ=              1.4058  YZZ=             -0.2191
  YYZ=             -1.9748  XYZ=              3.1665
 Hexadecapole moment (field-independent basis, Debye-Ang**3):
 XXXX=          -1485.4104 YYYY=           -467.7192 ZZZZ=           -133.2638 XXXY=            -24.4145
 XXXZ=             25.8642 YYYX=              1.0265 YYYZ=             -4.5778 ZZZX=              1.7471
 ZZZY=              3.6747 XXYY=           -327.6933 XXZZ=           -271.1664 YYZZ=            -98.5732
 XXYZ=              2.4741 YYXZ=             -1.0550 ZZXY=             -0.8715
 N-N= 3.820824513712D+02 E-N=-1.529091904017D+03  KE= 3.276418437227D+02
  Exact polarizability: 104.127  -8.366  83.044  -0.489   4.308  71.655
 Approx polarizability: 127.552 -14.483 116.914  -1.919   7.821 109.996
 Calling FoFJK, ICntrl=    100127 FMM=F ISym2X=0 I1Cent= 0 IOpClX= 0 NMat=1 NMatS=1 NMatT=0.
 Full mass-weighted force constant matrix:
 Low frequencies ---  -12.6686   -0.0004   -0.0003    0.0010    8.3743   18.3840
 Low frequencies ---   44.4370   63.2403   96.2839
 Diagonal vibrational polarizability:
        4.8046236       4.0711417       3.5094591
 Harmonic frequencies (cm**-1), IR intensities (KM/Mole), Raman scattering
 activities (A**4/AMU), depolarization ratios for plane and unpolarized
 incident light, reduced masses (AMU), force constants (mDyne/A),
 and normal coordinates:
                      1                      2                      3
                      A                      A                      A
 Frequencies --     44.1413                63.2181                96.2554
 Red. masses --      1.9299                 2.9835                 1.6786
 Frc consts  --      0.0022                 0.0070                 0.0092
 IR Inten    --      0.0024                 0.0072                 0.3211
  Atom  AN      X      Y      Z        X      Y      Z        X      Y      Z
     1   6     0.01   0.02  -0.10     0.21  -0.05  -0.01     0.07  -0.03   0.09
     2   6     0.02  -0.02   0.03     0.04  -0.04  -0.04    -0.05   0.04  -0.12
     3   7    -0.01   0.02   0.04     0.01   0.05   0.02    -0.01   0.03  -0.02
     4   6    -0.03   0.01   0.08    -0.09   0.03   0.00     0.02   0.03   0.12
     5   6     0.02   0.03   0.01     0.01   0.14   0.06    -0.02  -0.04  -0.04
     6   6    -0.02  -0.12  -0.12     0.00   0.12   0.03    -0.02  -0.06  -0.05
     7   6     0.01   0.09  -0.08     0.00  -0.01  -0.03    -0.01   0.00  -0.02
     8   6     0.00  -0.03   0.12    -0.18  -0.21  -0.02     0.02   0.02   0.01
     9   1     0.06  -0.04  -0.05     0.22  -0.12  -0.08    -0.07   0.06  -0.16
    10   1     0.07   0.01  -0.23     0.22   0.03   0.08    -0.10  -0.01   0.48
    11   1    -0.10   0.12  -0.10     0.31  -0.07   0.00     0.45  -0.18   0.12
    12   1     0.00   0.01   0.11     0.03  -0.13  -0.11     0.00  -0.04  -0.35
    13   1     0.07  -0.11   0.04    -0.04  -0.02  -0.05    -0.26   0.18  -0.13
    14   1    -0.02   0.04   0.13    -0.10   0.07   0.04     0.05   0.07   0.22
    15   1    -0.06  -0.02   0.09    -0.18   0.02  -0.02    -0.02  -0.08   0.15
    16   1    -0.01   0.03   0.06    -0.07  -0.03  -0.06     0.05   0.11   0.10
    17   1    -0.02   0.05   0.14     0.05   0.15   0.12    -0.05  -0.05  -0.07
    18   1     0.10   0.15  -0.06    -0.01   0.20   0.03     0.01  -0.08  -0.02
    19   1    -0.04  -0.35   0.00    -0.07   0.15   0.02     0.00  -0.10  -0.02
    20   1    -0.07  -0.17  -0.38     0.05   0.12   0.07    -0.04  -0.07  -0.09
    21   1     0.05   0.36  -0.22     0.15   0.04  -0.08    -0.04   0.04  -0.04
    22   1    -0.04  -0.30   0.27    -0.34  -0.27   0.03     0.05  -0.01   0.03
    23   1     0.03   0.13   0.15    -0.18  -0.33  -0.06     0.03   0.08   0.03
                      4                      5                      6
                      A                      A                      A
 Frequencies --    104.1999               173.2189               214.4294
 Red. masses --      2.3996                 2.1283                 1.2433
 Frc consts  --      0.0154                 0.0376                 0.0337
 IR Inten    --      0.2683                 0.1330                 0.5041
  Atom  AN      X      Y      Z        X      Y      Z        X      Y      Z
     1   6     0.06   0.01  -0.05    -0.09   0.00  -0.04    -0.07  -0.01   0.04
     2   6    -0.03   0.01  -0.03    -0.04   0.00  -0.04     0.00   0.01  -0.05
     3   7    -0.01   0.03   0.07     0.04  -0.06   0.06     0.02  -0.01  -0.05
     4   6    -0.04   0.02  -0.07     0.09  -0.05  -0.06    -0.05  -0.02   0.04
     5   6    -0.04   0.10   0.16     0.01  -0.06   0.12     0.01   0.02   0.00
     6   6    -0.04  -0.15   0.05    -0.02   0.02   0.09     0.03   0.02   0.02
     7   6     0.00  -0.11   0.01     0.09   0.14  -0.05     0.04   0.01   0.00
     8   6     0.10   0.07  -0.12    -0.05   0.00  -0.06     0.02  -0.01  -0.01
     9   1     0.06  -0.04  -0.11    -0.22   0.10  -0.25     0.02   0.00   0.30
    10   1     0.07   0.05  -0.02    -0.24  -0.08   0.15     0.04   0.03  -0.12
    11   1     0.12   0.04  -0.05     0.15   0.00  -0.03    -0.32  -0.11   0.03
    12   1    -0.01  -0.01  -0.10     0.02   0.06  -0.14     0.02   0.02  -0.08
    13   1    -0.13  -0.01  -0.03    -0.17   0.01  -0.05     0.00   0.07  -0.05
    14   1     0.02   0.00   0.03     0.12  -0.10  -0.05     0.13   0.07   0.50
    15   1    -0.22   0.09  -0.12     0.03   0.04  -0.09    -0.51  -0.20   0.03
    16   1     0.05  -0.03  -0.23     0.13  -0.06  -0.13     0.20   0.04  -0.33
    17   1    -0.10   0.14   0.42     0.03  -0.06   0.09     0.02   0.02   0.01
    18   1    -0.01   0.33   0.05    -0.02  -0.07   0.13    -0.02   0.03   0.00
    19   1    -0.13  -0.29   0.14    -0.06   0.01   0.10     0.03   0.02   0.01
    20   1     0.02  -0.18  -0.13    -0.12   0.01   0.09     0.03   0.02   0.02
    21   1    -0.04  -0.20   0.06     0.31   0.36  -0.20     0.08   0.04  -0.02
    22   1     0.15   0.17  -0.18    -0.30  -0.21   0.09    -0.03  -0.04   0.01
    23   1     0.14   0.12  -0.17     0.07   0.08  -0.22     0.03  -0.01  -0.04
                      7                      8                      9
                      A                      A                      A
 Frequencies --    245.3530               291.0447               341.4788
 Red. masses --      1.3331                 1.9227                 2.2873
 Frc consts  --      0.0473                 0.0960                 0.1571
 IR Inten    --      0.1067                 0.4454                 0.7520
  Atom  AN      X      Y      Z        X      Y      Z        X      Y      Z
     1   6     0.05  -0.01   0.02     0.12   0.05  -0.01    -0.09  -0.07   0.00
     2   6    -0.03   0.02  -0.08     0.02   0.02   0.07     0.05  -0.04  -0.05
     3   7     0.00   0.00  -0.02     0.01  -0.01   0.05     0.08  -0.06  -0.01
     4   6     0.08   0.02   0.02     0.12   0.01  -0.05     0.14  -0.05   0.05
     5   6    -0.03  -0.03   0.03    -0.01  -0.10  -0.01     0.07   0.13   0.06
     6   6    -0.04  -0.03   0.04    -0.08  -0.02  -0.03    -0.02   0.05  -0.08
     7   6    -0.01   0.02   0.01    -0.11   0.01   0.00    -0.12   0.01   0.00
     8   6    -0.03   0.02  -0.02    -0.09   0.05   0.00    -0.10   0.04   0.00
     9   1     0.29  -0.16   0.44     0.17  -0.07  -0.05    -0.17   0.08   0.00
    10   1     0.32   0.18  -0.27     0.17   0.09  -0.06    -0.17  -0.15   0.05
    11   1    -0.38  -0.11   0.01     0.13   0.14  -0.01    -0.08  -0.14   0.00
    12   1    -0.01  -0.03  -0.19     0.00   0.01   0.11     0.09   0.01  -0.08
    13   1    -0.13   0.08  -0.09     0.06  -0.02   0.08     0.01  -0.03  -0.05
    14   1     0.02  -0.02  -0.16     0.35  -0.08   0.28     0.16  -0.08   0.07
    15   1     0.32   0.03   0.05    -0.26   0.03  -0.12     0.20  -0.11   0.09
    16   1    -0.03   0.06   0.21     0.37   0.10  -0.43     0.14   0.05   0.10
    17   1    -0.04  -0.03   0.04    -0.01  -0.12  -0.14     0.15   0.17   0.32
    18   1    -0.07  -0.02   0.03     0.04  -0.22   0.04     0.07   0.39  -0.07
    19   1    -0.04  -0.05   0.05    -0.06   0.00  -0.04    -0.07  -0.06  -0.02
    20   1    -0.07  -0.04   0.01    -0.12  -0.01   0.00     0.00   0.03  -0.19
    21   1     0.04   0.08  -0.03    -0.19  -0.03   0.03    -0.28  -0.17   0.12
    22   1    -0.10  -0.03   0.01    -0.05   0.10  -0.03     0.02   0.23  -0.11
    23   1     0.01   0.05  -0.08    -0.12   0.02   0.04    -0.21  -0.13   0.11
                     10                     11                     12
                      A                      A                      A
 Frequencies --    359.4509               444.3213               463.2382
 Red. masses --      2.2611                 2.0808                 2.6187
 Frc consts  --      0.1721                 0.2420                 0.3311
 IR Inten    --      2.9711                 1.2333                 1.8418
  Atom  AN      X      Y      Z        X      Y      Z        X      Y      Z
     1   6    -0.03  -0.02  -0.01    -0.01   0.05   0.00     0.05   0.18   0.01
     2   6    -0.12  -0.01  -0.04     0.04   0.05  -0.05     0.03   0.11  -0.01
     3   7    -0.02   0.00   0.20     0.09   0.02   0.09     0.09  -0.11  -0.09
     4   6    -0.01   0.00  -0.03    -0.12  -0.03  -0.01    -0.06  -0.17   0.02
     5   6     0.07   0.00   0.02     0.11  -0.07  -0.02     0.02  -0.04   0.09
     6   6     0.02   0.10  -0.09     0.06  -0.07  -0.05    -0.08   0.03   0.01
     7   6     0.00  -0.03  -0.10    -0.01   0.05   0.10    -0.06  -0.03  -0.11
     8   6     0.08  -0.04   0.06    -0.11   0.04  -0.03     0.03  -0.01   0.03
     9   1     0.07  -0.11   0.12     0.00   0.10   0.08     0.08   0.09  -0.04
    10   1     0.08   0.09  -0.09     0.00   0.04  -0.03     0.09   0.22  -0.02
    11   1    -0.15  -0.06  -0.02    -0.08   0.00   0.00     0.09   0.26   0.01
    12   1    -0.02  -0.01  -0.30     0.11   0.06  -0.19     0.08   0.15  -0.06
    13   1    -0.43   0.00  -0.06    -0.14   0.09  -0.06     0.03   0.24  -0.01
    14   1     0.02  -0.08  -0.09    -0.27   0.10  -0.14    -0.23   0.04  -0.01
    15   1    -0.07   0.20  -0.11    -0.15   0.06  -0.05    -0.04  -0.32   0.08
    16   1     0.03  -0.09  -0.12    -0.21  -0.29   0.03    -0.18  -0.29   0.16
    17   1     0.13  -0.02  -0.08     0.07  -0.09  -0.13     0.07  -0.03   0.17
    18   1     0.22  -0.09   0.05     0.22  -0.18   0.03    -0.08   0.06   0.04
    19   1    -0.06   0.25  -0.16     0.19  -0.26   0.05    -0.23   0.16  -0.04
    20   1     0.05   0.13   0.10    -0.05  -0.11  -0.24    -0.12   0.06   0.17
    21   1    -0.12  -0.12  -0.04    -0.09  -0.05   0.16    -0.10  -0.05  -0.09
    22   1     0.34  -0.03   0.02    -0.25   0.24  -0.12     0.24  -0.08   0.04
    23   1    -0.06  -0.04   0.29    -0.10  -0.20  -0.14    -0.06   0.09   0.21
                     13                     14                     15
                      A                      A                      A
 Frequencies --    476.6848               649.4334               786.1003
 Red. masses --      2.4848                 1.5205                 1.2771
 Frc consts  --      0.3327                 0.3778                 0.4650
 IR Inten    --      4.7821                 9.0734                 5.0822
  Atom  AN      X      Y      Z        X      Y      Z        X      Y      Z
     1   6    -0.03  -0.09   0.01     0.00  -0.01   0.00    -0.01  -0.02   0.00
     2   6     0.19  -0.03  -0.07    -0.02   0.00   0.00    -0.03   0.00   0.00
     3   7     0.10   0.11   0.02    -0.02   0.01  -0.04     0.01   0.00  -0.02
     4   6    -0.04   0.12  -0.03     0.00   0.04  -0.01    -0.01   0.06   0.00
     5   6    -0.01  -0.06   0.07    -0.04  -0.05   0.07     0.04  -0.09   0.00
     6   6    -0.11  -0.02   0.04    -0.01   0.00   0.02     0.02  -0.08  -0.02
     7   6    -0.08  -0.04  -0.09     0.11   0.12  -0.07     0.01   0.03  -0.01
     8   6     0.02   0.00   0.02     0.02  -0.04   0.01    -0.02   0.01   0.01
     9   1    -0.15   0.22   0.15     0.01  -0.04  -0.01     0.02  -0.07  -0.01
    10   1    -0.17  -0.28   0.03     0.01   0.01   0.01     0.02   0.04   0.02
    11   1    -0.16  -0.27   0.01     0.02  -0.01   0.00     0.03  -0.04   0.00
    12   1     0.14  -0.04   0.03    -0.05  -0.01   0.08    -0.04   0.02   0.07
    13   1     0.25  -0.09  -0.06     0.07  -0.02   0.01     0.03  -0.04   0.01
    14   1    -0.13   0.20  -0.09     0.00   0.04   0.00    -0.04   0.10   0.00
    15   1    -0.08   0.17  -0.05     0.00   0.01   0.00    -0.04   0.05   0.00
    16   1    -0.08  -0.05  -0.03     0.00   0.06   0.00    -0.02   0.02  -0.01
    17   1    -0.12  -0.09  -0.14    -0.07  -0.05   0.02    -0.12  -0.01   0.46
    18   1     0.01  -0.25   0.16    -0.12  -0.07   0.08     0.20   0.33  -0.22
    19   1    -0.25   0.09  -0.01    -0.04  -0.18   0.11     0.14   0.36  -0.26
    20   1    -0.14   0.00   0.17    -0.23  -0.04  -0.19    -0.16   0.02   0.49
    21   1    -0.08   0.01  -0.11    -0.07  -0.25   0.15    -0.09   0.04   0.01
    22   1     0.17  -0.12   0.07     0.24   0.30  -0.20    -0.09   0.08  -0.01
    23   1    -0.01   0.18   0.13    -0.29  -0.54   0.31    -0.03  -0.09  -0.02
                     16                     17                     18
                      A                      A                      A
 Frequencies --    806.6665               822.6588               943.4347
 Red. masses --      1.1710                 2.3471                 1.6185
 Frc consts  --      0.4489                 0.9359                 0.8487
 IR Inten    --      2.4080                 6.8396                 1.2455
  Atom  AN      X      Y      Z        X      Y      Z        X      Y      Z
     1   6    -0.03   0.01  -0.03     0.05   0.11  -0.02     0.01   0.03   0.00
     2   6    -0.07   0.01  -0.05     0.12   0.01  -0.10     0.00  -0.02   0.00
     3   7     0.02   0.00   0.00    -0.09   0.01   0.13    -0.03   0.00   0.01
     4   6     0.00   0.00   0.00     0.01  -0.14   0.02    -0.01   0.00   0.00
     5   6     0.04   0.00   0.03    -0.14   0.02  -0.08     0.03  -0.01  -0.05
     6   6     0.01   0.02   0.00    -0.03  -0.02  -0.02     0.10  -0.04   0.12
     7   6    -0.02  -0.02   0.00     0.06   0.03   0.01    -0.05   0.01  -0.06
     8   6    -0.01   0.00   0.00     0.03  -0.01   0.01    -0.09   0.05  -0.08
     9   1     0.11  -0.15   0.11    -0.04   0.48   0.28    -0.01   0.09   0.04
    10   1     0.07   0.40   0.30    -0.10   0.03   0.18    -0.02   0.00   0.02
    11   1     0.15  -0.40   0.00    -0.08  -0.32   0.00    -0.02  -0.02   0.00
    12   1    -0.12   0.27   0.40     0.07   0.05   0.08     0.00  -0.03  -0.02
    13   1     0.29  -0.35  -0.02     0.15  -0.26  -0.07    -0.04  -0.06   0.00
    14   1    -0.03   0.04  -0.01     0.10  -0.30  -0.02     0.03  -0.07  -0.01
    15   1    -0.02   0.01   0.00     0.05   0.00  -0.02     0.01   0.04  -0.01
    16   1    -0.01  -0.04   0.00     0.07  -0.07  -0.04     0.01   0.04  -0.01
    17   1     0.11  -0.02  -0.05    -0.21   0.05   0.10    -0.01   0.01   0.07
    18   1     0.03  -0.07   0.06    -0.06   0.17  -0.14     0.03   0.08  -0.09
    19   1    -0.03  -0.05   0.03     0.10   0.12  -0.10     0.33  -0.11   0.14
    20   1     0.04   0.00  -0.07    -0.05   0.01   0.11     0.08  -0.05   0.03
    21   1     0.00   0.01  -0.01     0.02  -0.01   0.04     0.20  -0.14  -0.03
    22   1     0.00  -0.03   0.02    -0.03   0.07  -0.03     0.36  -0.31   0.07
    23   1     0.02   0.07  -0.01     0.00  -0.18  -0.02    -0.38   0.28   0.48
                     19                     20                     21
                      A                      A                      A
 Frequencies --    947.6739               966.4680              1001.3029
 Red. masses --      1.3607                 2.4173                 1.7400
 Frc consts  --      0.7200                 1.3303                 1.0279
 IR Inten    --     32.8390                10.0594                 0.7599
  Atom  AN      X      Y      Z        X      Y      Z        X      Y      Z
     1   6    -0.01  -0.02   0.00     0.06   0.15   0.02     0.00   0.00   0.01
     2   6     0.00   0.01   0.01     0.00  -0.12  -0.04    -0.01   0.00  -0.01
     3   7     0.02   0.01   0.00    -0.10  -0.09  -0.07    -0.02   0.04  -0.02
     4   6     0.01  -0.01   0.00    -0.06   0.11  -0.01    -0.02  -0.06  -0.01
     5   6    -0.01   0.02   0.00     0.10  -0.08   0.12    -0.02   0.07   0.09
     6   6    -0.02   0.00  -0.01     0.03   0.05  -0.06     0.15  -0.11  -0.01
     7   6    -0.02  -0.04   0.03    -0.02  -0.04   0.02    -0.03   0.02  -0.08
     8   6     0.09   0.12  -0.06     0.02   0.02   0.00    -0.04   0.03   0.03
     9   1     0.01  -0.07  -0.02    -0.09   0.53   0.18     0.00   0.00  -0.01
    10   1     0.01   0.01  -0.01    -0.11  -0.08   0.05     0.00  -0.03  -0.02
    11   1     0.02   0.00   0.00    -0.13   0.04   0.02    -0.01   0.03   0.00
    12   1     0.01   0.03   0.00    -0.11  -0.31  -0.03    -0.04  -0.03   0.02
    13   1     0.01   0.03   0.00    -0.06  -0.23  -0.04     0.04   0.03  -0.01
    14   1    -0.01   0.02   0.00     0.08  -0.08   0.01     0.07  -0.16   0.02
    15   1    -0.01  -0.02   0.00     0.06   0.12   0.00     0.07  -0.08   0.02
    16   1     0.00  -0.04   0.00     0.00   0.35   0.00     0.00   0.09   0.03
    17   1    -0.02   0.01  -0.04     0.29  -0.08   0.11    -0.14   0.01  -0.25
    18   1     0.00  -0.02   0.02     0.01  -0.05   0.10    -0.08  -0.25   0.24
    19   1    -0.06   0.02  -0.02    -0.08  -0.03   0.00    -0.11   0.15  -0.12
    20   1     0.02   0.00   0.02     0.06   0.03  -0.11     0.49  -0.04   0.29
    21   1    -0.03   0.04  -0.01    -0.08   0.04  -0.01    -0.27   0.27  -0.17
    22   1    -0.39  -0.47   0.31    -0.17  -0.08   0.08    -0.10   0.27  -0.09
    23   1    -0.28  -0.58   0.26     0.04  -0.06  -0.06    -0.08  -0.14   0.02
                     22                     23                     24
                      A                      A                      A
 Frequencies --   1040.8396              1048.0676              1074.6549
 Red. masses --      1.7925                 1.5174                 2.3108
 Frc consts  --      1.1441                 0.9820                 1.5723
 IR Inten    --      1.0789                12.6391                42.0267
  Atom  AN      X      Y      Z        X      Y      Z        X      Y      Z
     1   6     0.02  -0.06  -0.01    -0.02   0.04   0.01     0.02  -0.10  -0.04
     2   6     0.01   0.10  -0.01    -0.01  -0.06   0.00     0.06   0.18  -0.01
     3   7    -0.03   0.02   0.01     0.01   0.01  -0.01    -0.13   0.02  -0.01
     4   6     0.00  -0.02   0.00    -0.01  -0.01  -0.01    -0.10  -0.07   0.00
     5   6    -0.09  -0.08   0.12     0.06   0.08  -0.05     0.17  -0.01   0.01
     6   6     0.11   0.07  -0.10    -0.05  -0.07   0.07    -0.06  -0.01   0.04
     7   6     0.01   0.02  -0.02     0.05   0.08  -0.06     0.01   0.00   0.01
     8   6    -0.02   0.00  -0.01     0.00  -0.01   0.02     0.01   0.00   0.00
     9   1    -0.02  -0.01  -0.03     0.01   0.00   0.01     0.00  -0.07  -0.04
    10   1    -0.02  -0.17  -0.07     0.01   0.10   0.04    -0.01  -0.16  -0.06
    11   1    -0.03  -0.04  -0.02     0.02   0.04   0.01    -0.01  -0.16  -0.04
    12   1    -0.06   0.05   0.09     0.02  -0.04  -0.05     0.01   0.17   0.07
    13   1     0.14   0.16   0.00    -0.08  -0.09   0.00     0.14   0.30   0.00
    14   1    -0.01   0.00  -0.01     0.04  -0.06   0.01     0.21  -0.50   0.01
    15   1    -0.02  -0.02   0.00     0.04  -0.02   0.01     0.20   0.04   0.01
    16   1    -0.01  -0.06   0.01     0.01   0.08   0.00     0.03   0.46  -0.01
    17   1    -0.12  -0.07   0.17     0.02   0.05  -0.19     0.17  -0.02  -0.01
    18   1    -0.16  -0.01   0.09     0.10  -0.06   0.01     0.22  -0.01  -0.01
    19   1     0.27   0.01  -0.08    -0.15   0.05   0.02    -0.15  -0.03   0.06
    20   1     0.07   0.05  -0.17    -0.04  -0.05   0.13    -0.13  -0.01   0.04
    21   1    -0.26  -0.44   0.26    -0.43  -0.55   0.34     0.05   0.01   0.00
    22   1    -0.15  -0.35   0.19    -0.23  -0.25   0.17     0.02   0.02  -0.01
    23   1     0.12   0.30  -0.11     0.14   0.15  -0.15     0.00  -0.03   0.01
                     25                     26                     27
                      A                      A                      A
 Frequencies --   1086.0644              1112.1958              1132.2877
 Red. masses --      1.7233                 1.8784                 1.3922
 Frc consts  --      1.1976                 1.3690                 1.0516
 IR Inten    --      9.5620                18.5361                 1.0630
  Atom  AN      X      Y      Z        X      Y      Z        X      Y      Z
     1   6     0.11  -0.03  -0.06    -0.01   0.03   0.11     0.02  -0.02   0.00
     2   6    -0.14   0.06   0.07    -0.06  -0.07  -0.12    -0.02   0.04  -0.01
     3   7     0.00   0.07  -0.03    -0.01   0.13  -0.03    -0.02  -0.02  -0.02
     4   6     0.07  -0.06  -0.04     0.03  -0.10   0.05     0.03   0.02   0.11
     5   6     0.06   0.02   0.00     0.05   0.01   0.04     0.02  -0.03  -0.06
     6   6    -0.02  -0.01   0.02    -0.03   0.01  -0.03     0.02   0.01   0.08
     7   6     0.00   0.00   0.00     0.01  -0.01   0.04    -0.02   0.00  -0.07
     8   6     0.00   0.00   0.00     0.00   0.00  -0.02     0.02   0.01   0.03
     9   1    -0.08   0.45   0.16    -0.06  -0.05  -0.18    -0.03   0.06  -0.01
    10   1    -0.17  -0.39   0.02     0.05  -0.08  -0.17    -0.02  -0.10  -0.03
    11   1    -0.22  -0.29  -0.06    -0.02   0.44   0.08    -0.05  -0.02  -0.01
    12   1    -0.26  -0.14   0.13    -0.30  -0.26   0.20    -0.05   0.02   0.04
    13   1    -0.11  -0.07   0.08     0.38   0.01  -0.11     0.07   0.07   0.00
    14   1    -0.12   0.28   0.06     0.01  -0.19  -0.11    -0.06  -0.10  -0.21
    15   1    -0.08  -0.27   0.03    -0.03   0.20  -0.06    -0.19   0.48  -0.10
    16   1    -0.04  -0.21   0.07     0.09  -0.21  -0.10     0.10  -0.41  -0.18
    17   1    -0.02   0.01  -0.07    -0.12   0.00  -0.02     0.27   0.00   0.12
    18   1     0.14   0.00   0.00     0.22  -0.03   0.04    -0.27   0.14  -0.13
    19   1    -0.06   0.00   0.02     0.05   0.02  -0.04    -0.15  -0.10   0.14
    20   1    -0.07  -0.01   0.03    -0.20   0.01   0.01     0.20  -0.02  -0.05
    21   1     0.02   0.00   0.00     0.14  -0.01   0.02    -0.22   0.04  -0.05
    22   1     0.01   0.01  -0.01     0.08  -0.04   0.00    -0.15   0.09   0.00
    23   1     0.00  -0.01   0.01    -0.02   0.04   0.03     0.05  -0.09  -0.08
                     28                     29                     30
                      A                      A                      A
 Frequencies --   1184.2148              1203.6405              1249.6876
 Red. masses --      1.8164                 1.9092                 1.8444
 Frc consts  --      1.5008                 1.6297                 1.6971
 IR Inten    --      9.6611                 8.6528                25.9498
  Atom  AN      X      Y      Z        X      Y      Z        X      Y      Z
     1   6     0.01   0.01  -0.06    -0.04   0.03  -0.05     0.07  -0.02   0.03
     2   6    -0.01  -0.01   0.09     0.01  -0.06   0.09    -0.09   0.02  -0.03
     3   7     0.04  -0.02  -0.10     0.03   0.13  -0.06     0.12  -0.12   0.00
     4   6    -0.02   0.00   0.10    -0.02  -0.08   0.01    -0.07   0.05   0.03
     5   6    -0.02   0.06   0.06     0.02  -0.04   0.01    -0.06   0.07  -0.01
     6   6    -0.03  -0.05  -0.10     0.06   0.08   0.05    -0.03   0.00   0.03
     7   6     0.05   0.02   0.09    -0.08  -0.05  -0.07    -0.04  -0.01  -0.06
     8   6    -0.03   0.00  -0.04     0.05   0.00   0.04     0.03   0.00   0.03
     9   1     0.04   0.05   0.12     0.07  -0.07   0.10    -0.06   0.16  -0.05
    10   1    -0.05   0.06   0.13    -0.02   0.18   0.14    -0.04  -0.26  -0.09
    11   1    -0.01  -0.25  -0.05     0.06  -0.18  -0.02    -0.14   0.09   0.01
    12   1     0.11   0.03  -0.14     0.09  -0.11  -0.17     0.00   0.32   0.14
    13   1    -0.19   0.07   0.07    -0.26  -0.02   0.06     0.13  -0.07  -0.02
    14   1     0.03  -0.30  -0.20     0.06  -0.22  -0.02     0.06  -0.19  -0.03
    15   1    -0.05   0.46  -0.08     0.09   0.06  -0.02     0.12   0.18   0.00
    16   1     0.13  -0.16  -0.19     0.07   0.09  -0.07     0.05   0.20  -0.08
    17   1    -0.12   0.02  -0.16    -0.38  -0.03   0.10    -0.15   0.05  -0.14
    18   1    -0.01  -0.13   0.13     0.06   0.05  -0.03     0.28  -0.09   0.06
    19   1    -0.08   0.16  -0.20     0.30  -0.15   0.16     0.56  -0.02   0.01
    20   1    -0.06   0.00   0.12    -0.38   0.03  -0.15    -0.14  -0.01   0.00
    21   1     0.21  -0.06   0.10    -0.14   0.08  -0.13     0.02  -0.02  -0.06
    22   1     0.18  -0.11   0.00    -0.18   0.09   0.01    -0.07   0.06   0.00
    23   1    -0.09   0.13   0.12     0.13  -0.12  -0.16     0.08  -0.12  -0.10
                     31                     32                     33
                      A                      A                      A
 Frequencies --   1275.3394              1301.2045              1328.5920
 Red. masses --      1.5129                 1.3321                 1.2483
 Frc consts  --      1.4498                 1.3288                 1.2983
 IR Inten    --      2.6391                11.5824                11.0903
  Atom  AN      X      Y      Z        X      Y      Z        X      Y      Z
     1   6    -0.04   0.00  -0.03    -0.01   0.01  -0.02     0.01  -0.01   0.04
     2   6     0.07   0.01   0.00    -0.02  -0.02   0.02     0.03   0.02  -0.01
     3   7    -0.11  -0.03  -0.02     0.06   0.04  -0.01    -0.05   0.02  -0.03
     4   6     0.07   0.02   0.01    -0.04  -0.01  -0.01     0.02  -0.01   0.01
     5   6     0.00   0.06   0.06    -0.04  -0.07   0.00     0.03   0.00   0.02
     6   6    -0.06  -0.03   0.02    -0.10   0.02   0.01     0.00  -0.01  -0.02
     7   6    -0.03   0.00  -0.04     0.02   0.02  -0.02    -0.01  -0.03  -0.06
     8   6     0.02   0.00   0.02    -0.01   0.02   0.03    -0.01   0.05   0.07
     9   1     0.02  -0.05   0.05     0.02  -0.01   0.03    -0.02  -0.03  -0.06
    10   1     0.02   0.17   0.07    -0.03   0.03   0.05     0.03  -0.08  -0.10
    11   1     0.08  -0.08  -0.02     0.00  -0.08  -0.01     0.00   0.11   0.03
    12   1    -0.03  -0.23  -0.06    -0.07  -0.16  -0.01     0.17   0.29  -0.01
    13   1     0.09   0.26   0.00     0.05   0.13   0.01    -0.27  -0.44   0.00
    14   1    -0.08   0.18  -0.06     0.08  -0.14   0.03    -0.04   0.03  -0.04
    15   1    -0.18  -0.04  -0.01     0.08  -0.01   0.01    -0.07  -0.03  -0.01
    16   1    -0.02  -0.26   0.04    -0.02   0.05   0.00     0.00  -0.08   0.00
    17   1     0.24   0.03  -0.15    -0.01  -0.05   0.14    -0.05  -0.01  -0.02
    18   1     0.29  -0.11   0.11     0.33   0.08  -0.09    -0.09  -0.01   0.02
    19   1     0.63   0.02  -0.05     0.01   0.00   0.01    -0.02   0.03  -0.04
    20   1     0.01  -0.02   0.07     0.78   0.01  -0.13     0.03  -0.01   0.01
    21   1     0.08  -0.05  -0.03     0.24  -0.17   0.04     0.55  -0.35   0.01
    22   1    -0.03   0.05   0.00    -0.06   0.07   0.00    -0.27   0.19   0.03
    23   1     0.05  -0.11  -0.07    -0.01  -0.04   0.01     0.00   0.01   0.02
                     34                     35                     36
                      A                      A                      A
 Frequencies --   1332.2275              1344.5127              1396.9946
 Red. masses --      1.3012                 1.2312                 1.2805
 Frc consts  --      1.3607                 1.3113                 1.4724
 IR Inten    --      7.7543                 3.2540                 6.0928
  Atom  AN      X      Y      Z        X      Y      Z        X      Y      Z
     1   6     0.00   0.01  -0.04     0.00   0.00   0.02    -0.02   0.09   0.04
     2   6    -0.01  -0.02   0.00     0.03   0.01  -0.01     0.03   0.08  -0.01
     3   7     0.01  -0.06   0.04    -0.07  -0.06  -0.04     0.02  -0.05   0.01
     4   6     0.00   0.03   0.00     0.04   0.03   0.02    -0.01   0.03   0.01
     5   6    -0.02   0.02  -0.03     0.00   0.00   0.01     0.03   0.02  -0.01
     6   6     0.09   0.00   0.00     0.03   0.05   0.03    -0.01   0.00   0.00
     7   6    -0.01  -0.04  -0.04     0.01   0.00   0.02     0.00   0.00   0.00
     8   6    -0.01   0.04   0.05     0.00  -0.01  -0.02     0.00   0.00   0.00
     9   1     0.02   0.03   0.06     0.02  -0.03   0.00     0.13  -0.39  -0.23
    10   1    -0.02   0.07   0.08     0.01  -0.05  -0.05    -0.11  -0.26  -0.22
    11   1     0.01  -0.09  -0.03     0.03   0.03   0.02     0.02  -0.42   0.05
    12   1    -0.13  -0.22   0.01     0.12   0.18  -0.01    -0.26  -0.47   0.00
    13   1     0.28   0.45  -0.01    -0.06  -0.13  -0.01    -0.06  -0.25   0.00
    14   1    -0.01   0.04   0.01    -0.05   0.06  -0.10     0.04  -0.06   0.00
    15   1     0.00   0.04   0.00    -0.14  -0.02   0.00     0.02  -0.03   0.02
    16   1     0.00   0.02   0.00     0.00  -0.16   0.00    -0.01  -0.06  -0.02
    17   1    -0.17   0.02  -0.02    -0.52  -0.01   0.02    -0.23   0.01  -0.03
    18   1     0.16  -0.02  -0.01     0.63  -0.04  -0.02    -0.15  -0.01   0.01
    19   1    -0.39  -0.01   0.04    -0.26  -0.06   0.11     0.05   0.00  -0.01
    20   1    -0.29   0.00   0.00     0.13   0.03  -0.10     0.01   0.00   0.00
    21   1     0.38  -0.24  -0.01    -0.22   0.12   0.00     0.01   0.00   0.00
    22   1    -0.26   0.15   0.03     0.06  -0.05  -0.01     0.00   0.00   0.00
    23   1    -0.02   0.08   0.05    -0.01   0.03   0.02     0.00  -0.01  -0.01
                     37                     38                     39
                      A                      A                      A
 Frequencies --   1409.8693              1415.0762              1455.7812
 Red. masses --      1.3482                 1.3334                 1.1635
 Frc consts  --      1.5790                 1.5731                 1.4528
 IR Inten    --     11.1926                22.4569                 0.8430
  Atom  AN      X      Y      Z        X      Y      Z        X      Y      Z
     1   6    -0.01  -0.02   0.01    -0.03  -0.10  -0.03     0.00   0.00   0.00
     2   6     0.02   0.06   0.02     0.02   0.10   0.00     0.00   0.00   0.00
     3   7     0.03   0.03  -0.03     0.03  -0.04   0.01     0.00   0.00   0.00
     4   6    -0.03   0.02   0.01    -0.02   0.03   0.01     0.00   0.00   0.00
     5   6    -0.13  -0.01   0.02     0.04   0.02  -0.02     0.00  -0.01   0.00
     6   6     0.06  -0.01   0.01    -0.02   0.01   0.00     0.04   0.00  -0.02
     7   6     0.00  -0.01   0.00     0.00   0.00   0.00    -0.08   0.06   0.00
     8   6     0.00   0.00   0.00     0.00   0.00   0.00    -0.02   0.03   0.03
     9   1    -0.04  -0.01  -0.06    -0.12   0.30   0.28     0.01   0.00   0.01
    10   1     0.05   0.04  -0.05     0.17   0.31   0.11    -0.01   0.00   0.01
    11   1     0.01   0.01   0.01     0.19   0.41  -0.04     0.01   0.01   0.00
    12   1    -0.08  -0.19  -0.06    -0.25  -0.40   0.01     0.00  -0.01  -0.01
    13   1    -0.12  -0.32   0.02    -0.08  -0.26   0.01     0.01  -0.01   0.00
    14   1     0.09  -0.19  -0.04     0.06  -0.10  -0.01    -0.02   0.01  -0.02
    15   1     0.10  -0.15   0.07     0.04  -0.05   0.03    -0.02   0.00   0.00
    16   1     0.02  -0.12  -0.11     0.00  -0.08  -0.05     0.01   0.03   0.00
    17   1     0.59  -0.02  -0.13    -0.29   0.02   0.04    -0.02  -0.02  -0.08
    18   1     0.45   0.11  -0.08    -0.13  -0.07   0.03     0.01   0.08  -0.04
    19   1    -0.16  -0.02   0.03     0.04   0.01  -0.01    -0.14  -0.20   0.11
    20   1    -0.23  -0.01   0.04     0.05   0.00  -0.03     0.04   0.04   0.25
    21   1    -0.03   0.01   0.00     0.01   0.00   0.00     0.21  -0.13   0.04
    22   1    -0.04   0.01   0.00     0.01   0.00   0.00     0.50  -0.27   0.10
    23   1    -0.01   0.04   0.03     0.00  -0.01  -0.01     0.20  -0.41  -0.47
                     40                     41                     42
                      A                      A                      A
 Frequencies --   1462.8854              1481.1945              1488.8265
 Red. masses --      1.1709                 1.1089                 1.0630
 Frc consts  --      1.4763                 1.4334                 1.3883
 IR Inten    --      1.4924                 1.7294                 3.6380
  Atom  AN      X      Y      Z        X      Y      Z        X      Y      Z
     1   6     0.01   0.01   0.00     0.00  -0.01   0.02    -0.03   0.02  -0.02
     2   6     0.00  -0.05  -0.01     0.00   0.01   0.01     0.00  -0.01  -0.02
     3   7    -0.01   0.02   0.00     0.00   0.00  -0.01     0.00   0.00   0.00
     4   6    -0.02   0.10  -0.01     0.00  -0.03   0.00     0.00   0.00  -0.02
     5   6     0.02   0.01  -0.02    -0.01   0.01  -0.03     0.00  -0.01   0.03
     6   6     0.00   0.00   0.01     0.03  -0.03   0.06     0.01  -0.02   0.03
     7   6    -0.01   0.00   0.00    -0.03   0.01   0.00    -0.01   0.00   0.00
     8   6     0.00   0.00   0.00    -0.01   0.01   0.01     0.00   0.00   0.00
     9   1    -0.01   0.02  -0.04    -0.10   0.07  -0.16     0.20  -0.09   0.42
    10   1     0.00  -0.01   0.00     0.11   0.11  -0.07    -0.16  -0.27  -0.08
    11   1    -0.05  -0.05   0.00    -0.06  -0.11   0.01     0.38   0.13   0.00
    12   1     0.00   0.16   0.21     0.01  -0.05  -0.08    -0.05   0.06   0.18
    13   1    -0.15   0.22  -0.02     0.04  -0.08   0.01    -0.14   0.07  -0.03
    14   1     0.28  -0.37  -0.01    -0.07   0.12   0.05     0.12  -0.01   0.20
    15   1     0.14  -0.41   0.18     0.02   0.13  -0.05     0.03   0.15  -0.05
    16   1    -0.09  -0.51  -0.11     0.02   0.10   0.02    -0.11  -0.10   0.13
    17   1    -0.02   0.04   0.21     0.07   0.06   0.30     0.02  -0.05  -0.26
    18   1    -0.08  -0.19   0.10     0.07  -0.28   0.12     0.01   0.24  -0.11
    19   1     0.00   0.08  -0.04    -0.08   0.48  -0.22    -0.03   0.27  -0.12
    20   1    -0.05  -0.02  -0.07    -0.05  -0.12  -0.50    -0.05  -0.07  -0.27
    21   1     0.03  -0.01   0.00     0.06  -0.01   0.00     0.01   0.01   0.00
    22   1     0.06  -0.03   0.01     0.17  -0.07   0.03     0.06  -0.02   0.01
    23   1     0.03  -0.05  -0.06     0.06  -0.14  -0.15     0.02  -0.05  -0.05
                     43                     44                     45
                      A                      A                      A
 Frequencies --   1489.7011              1494.9965              1504.2213
 Red. masses --      1.0567                 1.0494                 1.0799
 Frc consts  --      1.3816                 1.3819                 1.4397
 IR Inten    --      4.1057                 1.7734                 8.9969
  Atom  AN      X      Y      Z        X      Y      Z        X      Y      Z
     1   6     0.03  -0.01  -0.01     0.00  -0.02   0.03     0.03  -0.01   0.00
     2   6    -0.02   0.02   0.02     0.03  -0.01   0.00     0.03  -0.01  -0.01
     3   7     0.00   0.00   0.00     0.01  -0.01  -0.01    -0.01  -0.01   0.01
     4   6     0.02   0.03  -0.03     0.00  -0.01  -0.03    -0.01   0.01   0.02
     5   6     0.01  -0.01   0.01    -0.01   0.00   0.01     0.02  -0.02   0.04
     6   6     0.00   0.00   0.01     0.00   0.01  -0.01     0.00  -0.01   0.02
     7   6     0.00   0.00   0.00     0.00   0.00   0.00     0.00   0.00   0.00
     8   6     0.00   0.00   0.00     0.00   0.00   0.00     0.00   0.00   0.00
     9   1     0.04  -0.12  -0.11    -0.22   0.21  -0.26    -0.07  -0.02  -0.26
    10   1    -0.10   0.04   0.30     0.26   0.22  -0.21     0.03   0.18   0.22
    11   1    -0.33   0.12  -0.03    -0.02  -0.21   0.02    -0.36   0.02  -0.02
    12   1     0.10  -0.03  -0.32    -0.08   0.00   0.25    -0.07  -0.03   0.19
    13   1     0.30  -0.17   0.03    -0.26   0.11  -0.02    -0.17   0.11  -0.02
    14   1     0.27  -0.26   0.12     0.20   0.00   0.37    -0.13   0.10  -0.10
    15   1    -0.27   0.05  -0.06    -0.01   0.33  -0.13     0.15  -0.11   0.07
    16   1    -0.27  -0.14   0.36    -0.22  -0.11   0.29     0.15   0.01  -0.23
    17   1    -0.05  -0.03  -0.12    -0.04  -0.01  -0.08    -0.13  -0.08  -0.42
    18   1    -0.04   0.12  -0.05     0.04   0.06  -0.03    -0.06   0.38  -0.17
    19   1     0.00   0.09  -0.04     0.00  -0.11   0.05     0.00   0.19  -0.09
    20   1    -0.04  -0.02  -0.09    -0.01   0.03   0.10     0.03  -0.05  -0.21
    21   1     0.00   0.00   0.00    -0.01   0.00   0.00     0.00   0.01   0.00
    22   1     0.01   0.00   0.00    -0.02   0.01   0.00     0.03  -0.01   0.00
    23   1     0.01  -0.01  -0.01    -0.01   0.02   0.02     0.01  -0.02  -0.02
                     46                     47                     48
                      A                      A                      A
 Frequencies --   1506.1028              1516.5099              1718.0433
 Red. masses --      1.0516                 1.0916                 4.8494
 Frc consts  --      1.4054                 1.4792                 8.4334
 IR Inten    --      3.6815                 4.5437                 9.7687
  Atom  AN      X      Y      Z        X      Y      Z        X      Y      Z
     1   6     0.01   0.00  -0.01    -0.02   0.00   0.02     0.00   0.00   0.00
     2   6     0.01   0.01   0.00    -0.05  -0.01   0.03     0.00   0.00   0.00
     3   7    -0.03  -0.01  -0.01    -0.02   0.00   0.01     0.00   0.00   0.00
     4   6    -0.04  -0.02  -0.01    -0.02   0.02   0.00     0.00   0.00   0.00
     5   6     0.00   0.01   0.00     0.03  -0.01   0.03    -0.01   0.00   0.00
     6   6     0.00   0.00  -0.01    -0.01   0.00   0.00    -0.06   0.04   0.00
     7   6     0.00   0.00   0.00     0.00   0.00   0.00     0.34  -0.27  -0.09
     8   6     0.00   0.00   0.00     0.00   0.00   0.00    -0.27   0.25   0.12
     9   1     0.09  -0.14   0.01    -0.15   0.23  -0.02     0.00   0.00   0.00
    10   1    -0.13  -0.05   0.21     0.21   0.06  -0.37     0.00   0.00   0.00
    11   1    -0.16   0.13  -0.02     0.28  -0.23   0.03     0.00   0.00   0.00
    12   1     0.05   0.00  -0.12     0.17   0.06  -0.39     0.00   0.00   0.00
    13   1     0.08  -0.09   0.00     0.40  -0.06   0.05     0.00   0.00   0.00
    14   1     0.03   0.28   0.46     0.02   0.01   0.04     0.01  -0.01   0.00
    15   1     0.56   0.24  -0.01     0.19  -0.11   0.07     0.00   0.00   0.00
    16   1     0.04  -0.29  -0.21     0.04  -0.18  -0.15     0.00   0.00   0.00
    17   1    -0.01   0.02   0.09    -0.09  -0.05  -0.23     0.03   0.00  -0.01
    18   1     0.05  -0.10   0.05    -0.08   0.22  -0.08     0.03   0.01   0.00
    19   1     0.00  -0.07   0.04     0.02   0.05  -0.02     0.15  -0.06   0.03
    20   1     0.01   0.02   0.08     0.02  -0.01  -0.05    -0.13   0.02  -0.04
    21   1     0.00   0.00   0.00     0.00   0.00   0.00    -0.34   0.09  -0.21
    22   1    -0.01   0.00   0.00     0.00   0.00   0.00     0.40  -0.08   0.27
    23   1     0.00   0.00   0.00     0.00   0.00   0.00    -0.11  -0.16  -0.39
                     49                     50                     51
                      A                      A                      A
 Frequencies --   2896.3682              2905.1733              2918.6435
 Red. masses --      1.0729                 1.0702                 1.0645
 Frc consts  --      5.3027                 5.3216                 5.3427
 IR Inten    --     30.2992                48.7458               153.4992
  Atom  AN      X      Y      Z        X      Y      Z        X      Y      Z
     1   6     0.00   0.00   0.00     0.00   0.00   0.00     0.00   0.00   0.00
     2   6     0.00   0.00   0.03     0.01  -0.01  -0.06     0.00   0.00  -0.03
     3   7     0.00   0.00   0.00     0.00   0.00   0.00     0.00   0.00   0.00
     4   6     0.00   0.00   0.00    -0.01   0.01   0.03     0.01  -0.03  -0.06
     5   6     0.00  -0.03  -0.07     0.00  -0.01  -0.02     0.00  -0.01  -0.02
     6   6     0.00   0.00   0.00     0.00   0.00   0.00     0.00   0.00   0.00
     7   6     0.00   0.00   0.00     0.00   0.00   0.00     0.00   0.00   0.00
     8   6     0.00   0.00   0.00     0.00   0.00   0.00     0.00   0.00   0.00
     9   1    -0.01   0.00   0.00     0.02   0.01  -0.01     0.01   0.00  -0.01
    10   1     0.00   0.00   0.00    -0.01   0.01   0.00    -0.01   0.01   0.00
    11   1     0.00   0.00   0.01     0.00   0.00  -0.03     0.00   0.00  -0.01
    12   1     0.03  -0.02   0.02    -0.08   0.04  -0.05    -0.02   0.01  -0.02
    13   1     0.01  -0.02  -0.37    -0.03   0.03   0.82    -0.02   0.01   0.41
    14   1    -0.01  -0.01   0.01    -0.05  -0.03   0.04     0.08   0.05  -0.06
    15   1     0.00  -0.02  -0.07     0.06  -0.14  -0.44    -0.12   0.28   0.81
    16   1     0.01   0.00   0.01     0.06  -0.01   0.05    -0.09   0.02  -0.08
    17   1     0.00  -0.10  -0.01     0.00  -0.02  -0.01     0.00  -0.01   0.00
    18   1     0.05   0.41   0.82     0.02   0.13   0.26     0.02   0.10   0.21
    19   1     0.00  -0.02  -0.03     0.00  -0.01  -0.01     0.00  -0.01  -0.01
    20   1     0.00  -0.02   0.00     0.00   0.00   0.00     0.00  -0.01   0.00
    21   1     0.00  -0.01  -0.01     0.00   0.00   0.00     0.00   0.00   0.00
    22   1     0.00   0.00   0.00     0.00   0.00   0.00     0.00   0.00   0.00
    23   1     0.00   0.00   0.00     0.00   0.00   0.00     0.00   0.00   0.00
                     52                     53                     54
                      A                      A                      A
 Frequencies --   3022.7439              3040.8637              3051.6454
 Red. masses --      1.0631                 1.0355                 1.0863
 Frc consts  --      5.7230                 5.6413                 5.9601
 IR Inten    --     17.2897                17.0477                16.9705
  Atom  AN      X      Y      Z        X      Y      Z        X      Y      Z
     1   6     0.00   0.00   0.00     0.00  -0.05  -0.01     0.01   0.00   0.01
     2   6     0.00   0.00   0.00     0.00   0.00   0.00    -0.07   0.03  -0.03
     3   7     0.00   0.00   0.00     0.00   0.00   0.00     0.00   0.00   0.00
     4   6     0.00   0.00   0.01     0.00   0.00   0.00     0.01   0.00   0.01
     5   6     0.00  -0.01   0.00     0.00   0.01   0.00     0.00   0.00   0.00
     6   6     0.00   0.06  -0.04     0.00   0.00   0.00     0.00   0.00   0.00
     7   6     0.00   0.00   0.00     0.00   0.00   0.00     0.00   0.00   0.00
     8   6     0.00   0.00   0.00     0.00   0.00   0.00     0.00   0.00   0.00
     9   1     0.00   0.00   0.00     0.51   0.27  -0.19    -0.06  -0.03   0.03
    10   1     0.01  -0.01   0.00    -0.44   0.27  -0.21    -0.12   0.08  -0.06
    11   1     0.00   0.00  -0.01    -0.02   0.01   0.55     0.01   0.00  -0.06
    12   1    -0.02   0.01  -0.01    -0.01   0.00  -0.01     0.80  -0.42   0.34
    13   1     0.00   0.00   0.00     0.00   0.00  -0.01    -0.02   0.01   0.08
    14   1     0.05   0.04  -0.03     0.01   0.00   0.00     0.03   0.02  -0.01
    15   1     0.00  -0.01  -0.02     0.00   0.00   0.00     0.01  -0.01  -0.04
    16   1    -0.03   0.00  -0.02     0.00   0.00   0.00    -0.11   0.02  -0.07
    17   1     0.00   0.09  -0.01     0.00  -0.07   0.01     0.00  -0.01   0.00
    18   1     0.00   0.00   0.01     0.00   0.00  -0.01     0.00   0.00   0.00
    19   1     0.02   0.20   0.33     0.00   0.01   0.01     0.00   0.00   0.01
    20   1     0.01  -0.90   0.15     0.00  -0.01   0.00     0.00  -0.01   0.00
    21   1     0.00   0.01   0.01     0.00   0.00   0.00     0.00   0.00   0.00
    22   1     0.00   0.00  -0.01     0.00   0.00   0.00     0.00   0.00   0.00
    23   1     0.01   0.00   0.00     0.00   0.00   0.00     0.00   0.00   0.00
                     55                     56                     57
                      A                      A                      A
 Frequencies --   3068.3422              3074.7195              3091.9717
 Red. masses --      1.0703                 1.0905                 1.0917
 Frc consts  --      5.9370                 6.0742                 6.1494
 IR Inten    --     43.6855                 4.2237                26.9867
  Atom  AN      X      Y      Z        X      Y      Z        X      Y      Z
     1   6     0.00   0.00   0.00     0.00   0.00   0.00    -0.02   0.00  -0.01
     2   6    -0.01   0.00   0.00     0.00   0.00   0.00     0.00   0.00   0.00
     3   7     0.00   0.00   0.00     0.00   0.00   0.00     0.00   0.00   0.00
     4   6    -0.02   0.03  -0.06     0.01  -0.01   0.01     0.01   0.00   0.00
     5   6     0.00   0.01   0.00     0.00   0.04  -0.01     0.00  -0.07   0.00
     6   6     0.00  -0.01  -0.01     0.00  -0.05  -0.05     0.00  -0.03  -0.02
     7   6     0.00   0.00   0.00     0.00   0.00   0.01     0.00   0.00   0.01
     8   6     0.00   0.00   0.00     0.00   0.00   0.00     0.00   0.00   0.00
     9   1    -0.02  -0.01   0.01    -0.04  -0.02   0.01     0.14   0.08  -0.05
    10   1    -0.03   0.02  -0.02    -0.01   0.01  -0.01     0.12  -0.08   0.06
    11   1     0.00   0.00  -0.02     0.00   0.00  -0.04    -0.01   0.00   0.08
    12   1     0.10  -0.05   0.04    -0.04   0.02  -0.02     0.04  -0.02   0.02
    13   1     0.00   0.00   0.00     0.00   0.00   0.01     0.00   0.00  -0.01
    14   1    -0.43  -0.28   0.21     0.06   0.04  -0.03    -0.06  -0.04   0.03
    15   1    -0.03   0.05   0.14     0.01  -0.01  -0.02     0.00   0.00   0.00
    16   1     0.65  -0.15   0.40    -0.15   0.03  -0.09    -0.04   0.01  -0.03
    17   1     0.00  -0.08   0.01     0.01  -0.45   0.07    -0.01   0.83  -0.12
    18   1     0.00   0.00  -0.01     0.00   0.01   0.00     0.00   0.03   0.08
    19   1     0.01   0.09   0.16     0.04   0.37   0.70     0.02   0.18   0.34
    20   1     0.00  -0.01   0.00    -0.01   0.28  -0.06     0.00   0.23  -0.05
    21   1     0.00  -0.01  -0.02    -0.02  -0.06  -0.12    -0.01  -0.05  -0.09
    22   1     0.00   0.00   0.00     0.00   0.00  -0.01     0.00   0.00  -0.01
    23   1     0.00   0.00   0.00     0.01   0.00   0.01     0.01   0.00   0.01
                     58                     59                     60
                      A                      A                      A
 Frequencies --   3108.6416              3112.4796              3118.1737
 Red. masses --      1.0992                 1.1007                 1.1021
 Frc consts  --      6.2586                 6.2826                 6.3137
 IR Inten    --     30.6234                45.3592                31.1110
  Atom  AN      X      Y      Z        X      Y      Z        X      Y      Z
     1   6    -0.09   0.00   0.01    -0.01   0.00   0.01    -0.01   0.03  -0.09
     2   6    -0.01   0.00   0.00     0.00   0.00   0.00    -0.01   0.00  -0.01
     3   7     0.00   0.00   0.00     0.00   0.00   0.00     0.00   0.00   0.00
     4   6     0.01   0.00   0.00    -0.09  -0.02   0.00    -0.01   0.00   0.00
     5   6     0.00   0.02   0.00     0.00   0.00   0.00     0.00   0.01   0.00
     6   6     0.00   0.01   0.00     0.00  -0.01   0.00     0.00   0.00   0.00
     7   6     0.00   0.00   0.00     0.00   0.00   0.00     0.00   0.00   0.00
     8   6     0.00   0.00   0.00     0.00   0.00   0.00     0.00   0.00   0.00
     9   1     0.58   0.33  -0.22     0.10   0.06  -0.04    -0.23  -0.12   0.07
    10   1     0.47  -0.31   0.24     0.06  -0.04   0.03     0.40  -0.25   0.17
    11   1    -0.01  -0.01  -0.19     0.00   0.00  -0.08    -0.04   0.04   0.79
    12   1     0.11  -0.06   0.05     0.05  -0.03   0.02     0.09  -0.05   0.04
    13   1     0.00   0.00   0.00     0.00   0.00   0.00     0.00   0.00   0.05
    14   1    -0.10  -0.07   0.05     0.61   0.41  -0.33     0.03   0.02  -0.02
    15   1     0.00   0.00   0.00    -0.02  -0.01  -0.02     0.00   0.00   0.00
    16   1    -0.05   0.01  -0.04     0.45  -0.11   0.30     0.03  -0.01   0.02
    17   1     0.00  -0.22   0.03     0.00   0.03   0.00     0.00  -0.11   0.02
    18   1     0.00  -0.01  -0.02     0.00   0.00   0.01     0.00   0.00   0.00
    19   1     0.00  -0.02  -0.04     0.00   0.02   0.03     0.00   0.00  -0.01
    20   1     0.00  -0.05   0.01     0.00   0.06  -0.01     0.00  -0.01   0.00
    21   1     0.01   0.02   0.03     0.00  -0.01  -0.03     0.00   0.00   0.00
    22   1     0.00   0.00   0.00     0.00   0.00   0.00     0.00   0.00   0.00
    23   1     0.00   0.00   0.00     0.00   0.00   0.00     0.00   0.00   0.00
                     61                     62                     63
                      A                      A                      A
 Frequencies --   3124.6937              3142.0913              3222.3653
 Red. masses --      1.0814                 1.0684                 1.1143
 Frc consts  --      6.2210                 6.2145                 6.8171
 IR Inten    --     25.8539                 5.1343                17.6460
  Atom  AN      X      Y      Z        X      Y      Z        X      Y      Z
     1   6     0.00   0.00   0.00     0.00   0.00   0.00     0.00   0.00   0.00
     2   6     0.00   0.00   0.00     0.00   0.00   0.00     0.00   0.00   0.00
     3   7     0.00   0.00   0.00     0.00   0.00   0.00     0.00   0.00   0.00
     4   6     0.00   0.00   0.00     0.00   0.00   0.00     0.00   0.00   0.00
[...]
 0.00109569,0.00370225,-0.00538630,0.00018405,-0.02784844,-0.02404396,0
 .01178543,-0.09423621,-0.11186514,0.05139902,-0.00214153,0.00078855,0.
 00012784,-0.00004465,-0.00069946,-0.00008521,0.00038715,0.00050890,0.0
 0009027,-0.00018450,0.00004839,-0.00015294,0.00002646,-0.00060626,-0.0
 0022606,0.00007931,-0.00011737,0.00003750,0.00003573,0.00005853,-0.000
 08232,0.00013948,0.00018016,-0.00033512,-0.00040342,-0.00034635,0.0005
 2201,0.10967806,0.13210247,0.00012362,-0.00030831,0.00030045,-0.000747
 56,-0.00036380,0.00093905,-0.00402747,0.00000208,0.00140729,0.08299518
 ,0.05493497,-0.09246336,0.00093282,0.00048701,0.00031873,0.00032826,0.
 00028482,0.00008042,-0.00018471,-0.00021504,-0.00011857,0.00009400,-0.
 00003591,0.00005413,-0.00001799,0.00000096,0.00000363,-0.00002461,-0.0
 0001098,-0.00002594,0.00000477,0.00011694,0.00001667,0.00032175,-0.000
 22731,-0.00002757,-0.00018623,-0.00066599,0.00038731,-0.09064682,-0.05
 822871,0.09468116,0.00003242,-0.00002569,-0.00001243,0.00008471,-0.000
 23412,-0.00129876,-0.00046270,0.00655477,0.00546731,-0.05549378,0.0070
 5983,0.02694274,0.00227750,0.00049286,0.00396172,-0.00052667,-0.000427
 82,-0.00022087,0.00008788,0.00006759,0.00012213,-0.00006429,0.00001913
 ,-0.00004145,0.00001636,0.00003268,-0.00003882,-0.00002145,0.00002940,
 0.00000783,-0.00009013,-0.00003987,0.00005607,0.00002927,0.00015518,-0
 .00035781,0.00050221,0.00051227,-0.00018581,-0.00257498,0.00660812,0.0
 2429721,0.05192665,-0.00059657,-0.00024441,0.00043030,0.00447640,0.003
 62840,-0.00351942,0.00965739,-0.03069503,-0.03297428,0.00740571,-0.065
 89702,-0.05736462,-0.00570375,0.00143692,-0.00440399,0.00027041,-0.000
 25978,0.00050809,0.00015609,0.00027198,-0.00015123,0.00004177,0.000009
 50,0.00002408,-0.00010832,-0.00029849,0.00014242,0.00004162,0.00014178
 ,-0.00000407,0.00005663,0.00028790,0.00024030,-0.00047391,-0.00019207,
 0.00006385,-0.00050453,0.00007365,0.00183504,-0.00112053,0.00560310,0.
 01443002,-0.01246921,0.08227234,-0.00026900,-0.00005613,0.00027462,0.0
 0104000,0.00092717,0.00189707,0.00157577,-0.01166071,0.00101576,0.0263
 1222,-0.05525655,-0.25045313,-0.00100771,0.00137718,0.00199269,0.00019
 011,-0.00006783,0.00005516,-0.00009821,0.00001942,-0.00022705,0.000106
 76,-0.00001137,0.00007536,-0.00004037,-0.00017113,0.00001224,0.0000493
 1,0.00002659,0.00003144,0.00010796,0.00026075,-0.00000149,-0.00028979,
 0.00006807,-0.00036223,-0.00127548,-0.00163146,0.00043339,0.00067578,-
 0.00302198,-0.01306879,-0.03192376,0.07384224,0.27362407,0.00064705,0.
 00010335,0.00015705,0.00000778,-0.00196070,0.00110983,-0.00795818,0.00
 428924,-0.00212212,-0.22619506,0.04012693,-0.11465953,0.00172018,0.001
 26777,0.00051350,0.00017259,-0.00003206,-0.00031612,0.00008798,0.00009
 629,0.00019122,-0.00011228,-0.00001000,-0.00008920,0.00003173,0.000107
 68,0.00001809,0.00007645,-0.00024555,0.00002964,-0.00005345,-0.0000014
 2,0.00002049,0.00076890,-0.00035609,0.00000248,-0.00001303,0.00006642,
 -0.00026529,-0.01874953,0.00403359,-0.01315763,0.00394669,-0.00148454,
 0.00294383,0.24581754,0.00004331,0.00017896,-0.00016522,0.00325765,0.0
 0075236,0.00051994,0.03203847,-0.01305656,0.01699917,0.03212998,-0.054
 53328,0.02100279,-0.00136990,-0.00700313,0.00049412,-0.00045587,-0.000
 15373,0.00021644,0.00008456,0.00019042,-0.00016222,0.00000563,0.000047
 09,0.00000274,-0.00002008,0.00005289,-0.00000648,0.00002064,0.00020949
 ,0.00003530,0.00003501,-0.00002781,-0.00001452,-0.00113934,-0.00028294
 ,0.00013222,-0.00052977,-0.00000507,0.00000611,-0.01249488,0.00357466,
 -0.00954927,-0.00751989,0.00236230,-0.00352159,-0.04622711,0.06790679,
 0.00046227,-0.00001663,0.00014091,-0.00117358,-0.00022584,-0.00016265,
 0.00294950,0.00045203,0.00208773,-0.11607584,0.02540601,-0.12177684,0.
 00053979,0.00013665,0.00021544,0.00015707,0.00001939,0.00011359,-0.000
 05414,-0.00010493,-0.00003362,0.00004420,-0.00000418,0.00002881,0.0000
 0772,0.00007612,-0.00001380,0.00003278,-0.00017844,-0.00005229,-0.0000
 1770,-0.00003936,-0.00003534,0.00067650,0.00044199,0.00025245,-0.00003
 489,-0.00002025,-0.00008058,0.01186314,-0.00315182,0.00752818,-0.02555
 882,0.00433773,-0.01622076,0.12604008,-0.02692229,0.12690739,-0.001345
 45,-0.00007657,-0.00081139,0.00063061,0.00235108,0.00002807,-0.0051089
 0,0.03254208,-0.00575779,-0.00550448,-0.00004913,-0.00341327,-0.046404
 50,-0.00245536,-0.00122936,-0.00304300,-0.02696470,0.00479793,0.002039
 82,-0.00136919,0.00008029,-0.00002321,0.00075894,-0.00000792,0.0002673
 7,-0.00006685,0.00024226,-0.00101360,-0.00177214,-0.00040469,0.0002218
 7,-0.00003441,0.00009347,0.00034657,-0.00010566,0.00010737,-0.00031879
 ,-0.00009030,0.00030259,0.00011391,-0.00002930,-0.00008448,0.00003456,
 -0.00015910,0.00013225,-0.00045410,0.00195489,-0.00011809,0.06229137,-
 0.00150478,-0.00049221,-0.00037984,-0.00132297,-0.00119249,0.00079746,
 0.00353593,-0.00818472,0.00135847,0.00163026,0.00140621,0.00156345,0.0
 0617312,-0.30383941,0.03620478,-0.00182499,-0.00864838,0.00126294,0.00
 084294,0.00040479,-0.00003285,-0.00048400,0.00053415,-0.00019101,-0.00
 031299,0.00028997,-0.00005011,-0.00180307,-0.00010857,-0.00055776,-0.0
 0003722,-0.00002394,-0.00007169,0.00000949,0.00006826,-0.00028816,0.00
 022271,0.00004328,-0.00051955,-0.00015818,0.00019741,-0.00012077,-0.00
 013842,0.00024982,0.00002091,0.00011402,-0.00061702,0.00006328,-0.0031
 5029,0.33178153,-0.00016064,0.00026680,-0.00017320,0.00092322,0.000322
 30,0.00109128,-0.00183289,0.01871041,-0.00334310,-0.00194459,-0.000961
 52,-0.00121636,-0.00318793,0.03059845,-0.05432000,0.00280700,0.0198627
 6,-0.00349494,-0.00131071,-0.00012641,0.00009685,0.00008354,-0.0003017
 1,0.00009445,0.00022872,-0.00013591,0.00003880,-0.00030619,-0.00058434
 ,0.00051732,-0.00009104,-0.00004027,-0.00010412,0.00017769,0.00003156,
 -0.00014759,-0.00004193,-0.00033653,-0.00002013,0.00015045,-0.00010778
 ,-0.00009482,-0.00026401,0.00039391,0.00038862,-0.00027613,0.00085784,
 0.00042886,0.00264719,-0.04141949,0.05732219,-0.00026581,-0.00016654,0
 .00039009,0.00413994,0.00255801,-0.00497122,-0.01616037,-0.00887448,-0
 .03458620,0.00166275,-0.00529282,-0.00113369,-0.04837213,-0.00322002,-
 0.00387908,-0.00034006,0.01237187,0.02345181,0.00198061,0.00031543,0.0
 0119434,-0.00026001,0.00009828,-0.00019193,0.00002406,-0.00020699,0.00
 004660,0.00004247,-0.00009441,0.00004659,-0.00002059,0.00017278,0.0000
 8757,-0.00014416,0.00004328,0.00055324,0.00047642,0.00000897,0.0022179
 2,0.00000027,0.00045392,0.00014969,0.00018448,0.00058413,0.00189429,0.
 00004050,-0.00004054,0.00045782,0.00072294,-0.00065947,-0.00017871,0.0
 6019264,0.00018697,-0.00066218,0.00035064,0.00050252,-0.00015722,-0.00
 054154,0.00161054,0.00481004,0.00685618,-0.00037414,0.00237968,0.00389
 643,-0.00220501,-0.09895641,-0.08872457,-0.00131379,0.00379179,0.00822
 263,0.00016636,-0.00003988,-0.00026746,0.00006228,0.00006251,0.0002116
 2,-0.00018196,0.00013736,-0.00012963,-0.00020877,0.00029031,-0.0002229
 5,-0.00004415,0.00006911,0.00004185,-0.00010396,0.00008644,0.00011128,
 -0.00047814,-0.00009841,0.00017995,0.00020335,-0.00001372,-0.00006254,
 -0.00081823,0.00112874,-0.00108424,-0.00021770,0.00003373,-0.00009399,
 -0.00060547,-0.01376243,-0.02861326,0.00415662,0.09914024,-0.00030435,
 0.00010517,0.00010942,0.00216172,0.00159951,-0.00084216,-0.01638226,-0
 .00256275,-0.02100545,0.00101428,-0.00312359,0.00193847,-0.00148715,-0
 .08898042,-0.21824003,0.00172806,-0.00994746,-0.01805727,-0.00150197,0
 .00009616,-0.00048816,0.00058315,-0.00007439,0.00059333,-0.00000335,-0
 .00018631,0.00008281,0.00013344,-0.00013656,-0.00000079,0.00011567,0.0
 0020590,0.00006227,-0.00028947,-0.00003834,0.00025912,-0.00136084,-0.0
 0093211,0.00091160,0.00017668,0.00025219,-0.00034722,-0.00083931,0.002
 00988,0.00053095,-0.00003023,0.00026015,0.00060571,0.00061303,0.001121
 72,0.00377356,0.01284323,0.09843812,0.24997108,-0.00001009,0.00000271,
 0.00005052,-0.00012617,-0.00027419,0.00020483,0.00257174,-0.00022141,-
 0.00058511,-0.00013632,0.00048684,-0.00004103,-0.00075993,0.01278675,0
 .02546194,-0.04668160,-0.00573460,-0.01194320,-0.00313399,-0.01418664,
 -0.02660636,0.00148497,-0.00144185,-0.00024581,-0.00000062,-0.00000722
 ,-0.00004232,-0.00001840,0.00002776,0.00002424,-0.00004171,-0.00002500
 ,-0.00006459,0.00000231,-0.00000635,-0.00007244,0.00011382,0.00004183,
 -0.00030484,-0.00003205,-0.00006280,0.00006527,0.00007350,-0.00021039,
 -0.00017843,-0.00004529,0.00001600,-0.00003535,0.00115171,0.00011797,-
 0.00090298,-0.00437361,-0.00143470,0.00279257,0.05420456,-0.00000606,0
 .00005078,-0.00008093,0.00009692,-0.00001733,0.00013012,0.00048168,0.0
 0008749,0.00007583,0.00009550,-0.00046492,0.00016550,-0.00043264,0.003
 75835,0.00826182,-0.00675856,-0.10863321,-0.10929113,0.00052448,0.0034
 0737,0.00764759,-0.00015623,0.00040791,0.00123807,0.00002637,-0.000014
 34,0.00001392,0.00002271,-0.00004260,0.00003986,-0.00000935,0.00000516
 ,0.00000789,0.00002932,0.,-0.00001711,-0.00002962,-0.00001834,-0.00001
 541,-0.00000539,0.00010016,-0.00027789,0.00000649,-0.00001514,0.000036
 93,0.00013900,0.00006945,-0.00007782,0.00073523,0.00087625,0.00020925,
 -0.00167182,0.00083913,0.00140434,0.00726539,0.11296938,0.00000718,-0.
 00001748,-0.00007001,0.00004929,-0.00002078,0.00018668,-0.00109574,0.0
 0024677,0.00203096,0.00010847,0.00004029,-0.00011852,-0.00018810,-0.00
 873123,-0.01851689,-0.01261883,-0.10704664,-0.24609197,-0.00152143,-0.
 00767713,-0.01466654,0.00176807,-0.00019213,0.00106778,-0.00002672,0.0
 0001963,0.00004283,0.00002661,0.00001636,-0.00006008,0.00005271,0.0000
 1753,0.00008198,0.00004827,0.00004426,0.00004353,-0.00021569,-0.000065
 75,0.00011903,-0.00000813,-0.00002049,-0.00005720,-0.00012421,0.000167
 46,0.00005197,0.00004497,-0.00001956,0.00002502,-0.00054390,0.00022166
 ,0.00060879,0.00307457,0.00136452,-0.00133807,0.01348314,0.11758545,0.
 27068818,0.00006468,-0.00014813,0.00001260,0.00015651,-0.00021295,-0.0
 0001628,0.00191966,0.00099033,-0.00072513,-0.00143752,-0.00047341,0.00
 073112,-0.00114953,-0.02861099,0.00617776,-0.04125192,0.00272222,-0.00
 233331,-0.00411820,0.03147379,-0.00484954,-0.00232650,-0.00028437,-0.0
 0261360,-0.00008984,0.00007382,-0.00003128,-0.00007402,0.00023066,-0.0
 0003382,-0.00004595,0.00001024,-0.00002405,-0.00007075,0.00009177,-0.0
 0007606,0.00016042,0.00003882,-0.00013999,-0.00192814,0.00139128,-0.00
 024385,0.00008376,0.00011847,-0.00002061,0.00029526,0.00023355,-0.0001
 9301,-0.00440289,-0.00102982,0.00332914,0.00102643,0.00082816,-0.00080
 407,-0.00040604,-0.00184315,0.00043592,0.05406263,0.00000069,-0.000004
 43,0.00002079,-0.00011725,0.00006820,-0.00010662,0.00017775,0.00020524
 ,0.00002264,0.00060224,-0.00115052,0.00026628,-0.00094609,-0.01002901,
 0.00206084,-0.00090878,-0.28820389,0.03997144,0.00386927,-0.00845743,0
 .00080869,0.00022512,0.00091778,0.00190486,-0.00005537,0.00002348,-0.0
 0001731,-0.00000334,0.00014787,-0.00001776,-0.00000367,-0.00000402,0.0
 0000013,-0.00015375,0.00001035,-0.00005274,0.00008644,0.00001372,-0.00
 002985,0.00151579,0.00020943,-0.00021931,0.00013920,0.00021105,-0.0000
 6579,0.00016660,0.00034987,-0.00011030,-0.00130263,0.00111254,0.001392
 81,-0.00026331,0.00081398,0.00028474,0.00027248,-0.01464422,0.00262077
 ,-0.00402744,0.31784151,-0.00001584,0.00009321,-0.00006162,-0.00008226
 ,0.00015626,-0.00008620,-0.00097478,-0.00081034,0.00035569,-0.00006949
 ,0.00036019,0.00007436,0.00175508,0.02048496,-0.00470847,-0.00175788,0
 .04103032,-0.05648764,-0.00081850,0.01585315,-0.00206727,-0.00110683,-
 0.00006877,-0.00096202,0.00004601,-0.00003380,0.00004075,0.00006493,-0
 .00013268,0.00000150,0.00004941,-0.00000835,0.00004313,0.00003512,-0.0
 0005814,0.00005127,-0.00005503,0.00000721,0.00005846,-0.00014532,-0.00
 007026,0.00053511,0.00005327,-0.00004563,-0.00013299,-0.00014489,-0.00
 019934,0.00002691,0.00320689,0.00093744,-0.00132638,-0.00082122,0.0000
 3468,0.00066195,0.00059067,-0.02780824,0.00524142,0.00037273,-0.049077
 77,0.05747822,-0.00000642,-0.00000197,-0.00001992,0.00001084,0.0000207
 5,0.00006256,-0.00016254,0.00024152,0.00074369,0.00006407,-0.00003407,
 -0.00012092,0.00179057,-0.00039198,-0.00170388,-0.00242504,-0.01208966
 ,-0.02336218,-0.05836579,-0.01448036,-0.04094209,0.00563797,0.01291733
 ,0.02053536,-0.00000695,0.00000216,0.00000813,0.00000515,-0.00000226,-
 0.00000753,0.00001302,0.00000575,0.00001504,0.00000970,0.00000381,-0.0
 0000651,-0.00005408,-0.00001869,0.00003635,0.00000212,-0.00005837,-0.0
 0002855,-0.00004018,0.00002732,0.00005962,-0.00000253,-0.00000734,0.00
 002452,-0.00011899,-0.00010987,0.00011224,-0.00047710,0.00032693,0.000
 90061,-0.00403559,0.00189029,-0.00231563,0.00080762,0.00051344,0.00036
 658,0.05783971,-0.00000678,0.00000555,-0.00000270,-0.00008867,-0.00005
 840,-0.00006131,0.00027565,-0.00016212,0.00024760,0.00000969,0.0001519
 9,-0.00005149,0.00011939,0.00015114,-0.00011422,0.00246303,0.00524473,
 0.00665918,-0.01257760,-0.10037688,-0.10773230,-0.00238812,-0.00588527
 ,-0.02169673,0.00000396,0.00000204,-0.00000207,0.00000402,-0.00000804,
 -0.00000731,0.00000161,-0.00000371,0.00000735,0.00000607,-0.00000962,0
 .00001052,0.00001360,0.00001973,-0.00001402,-0.00000862,-0.00003016,0.
 00002778,0.00000564,-0.00003710,-0.00001954,-0.00000085,-0.00002002,0.
 00000406,-0.00008776,-0.00008821,-0.00004236,-0.00011941,0.00011904,0.
 00004886,0.00204255,0.00109391,0.00052761,-0.00107617,0.00058775,-0.00
 050898,0.00755392,0.09832950,0.00000539,-0.00000541,-0.00000787,-0.000
 03295,0.00011032,0.00001594,-0.00025580,0.00007887,0.00047698,0.000038
 21,-0.00011056,-0.00012152,0.00065235,0.00008667,-0.00053942,-0.001479
 62,-0.00791580,-0.01211765,-0.03696758,-0.11035681,-0.25810679,-0.0046
 6790,-0.00560518,-0.00781727,-0.00001842,-0.00000225,0.00000796,0.0000
 0643,0.00001123,-0.00001661,0.00001826,0.00000379,0.00001322,-0.000039
 49,-0.00000717,0.00000116,-0.00003333,-0.00001221,0.00003161,0.0000056
 8,-0.00006139,-0.00002898,-0.00004543,0.00002579,0.00007046,-0.0000192
 5,0.00001603,0.00001962,-0.00000235,0.00002119,0.00001249,-0.00049684,
 0.00003577,0.00073436,-0.00274122,0.00079410,-0.00019313,0.00034320,0.
 00028232,0.00049412,0.04463383,0.12444387,0.27451092,-0.00000751,0.000
 01287,-0.00000370,-0.00002775,0.00005229,0.00000547,-0.00019213,-0.000
 06574,-0.00004684,-0.00000514,-0.00001083,0.00004261,-0.00030758,0.000
 29952,-0.00012402,-0.00025435,-0.00293623,0.00369401,0.00568575,0.0118
 4859,0.01942184,-0.05571698,-0.00923957,-0.03583794,0.00001305,-0.0000
 0423,-0.00000558,-0.00000127,-0.00001395,0.00001729,-0.00001148,-0.000
 00121,-0.00000824,-0.00000749,-0.00001369,0.00000328,0.00000201,-0.000
 00213,-0.00000248,-0.00000036,0.00002785,-0.00000271,0.00000672,0.0000
 0172,-0.00001056,0.00001389,0.00000297,-0.00000737,-0.00003434,0.00000
 044,-0.00003706,-0.00000111,-0.00006549,-0.00008260,-0.00008125,-0.000
 20740,-0.00066801,0.00055794,-0.00039066,-0.00011010,0.00034215,0.0069
 6743,-0.00101591,0.05021058,-0.00000882,0.00000594,-0.00001057,-0.0000
 4479,0.00008855,-0.00001656,-0.00024269,-0.00005042,0.00018361,0.00000
 617,-0.00005634,0.00000253,-0.00021443,0.00052439,-0.00038934,-0.00482
 986,-0.00414910,0.00226064,-0.00220796,-0.00549365,-0.02026379,-0.0072
 3690,-0.10346249,-0.11813111,0.00000029,-0.00000334,0.00000136,0.00000
 412,-0.00000546,0.00000408,0.00000334,0.00000173,0.00000232,-0.0000237
 0,-0.00001852,0.00000414,-0.00000586,-0.00000253,0.00001359,0.00000079
 ,0.00001823,-0.00001518,-0.00000983,0.00001244,0.00001671,0.00001355,0
 .00001101,-0.00000431,-0.00003211,0.00004153,-0.00006274,-0.00017773,0
 .00001789,0.00029239,0.00060574,0.00018593,0.00065029,0.00091967,-0.00
 034655,0.00011325,0.00696497,0.00478475,-0.00503201,0.00490408,0.10348
 751,0.00002206,-0.00001611,0.00001077,0.00000170,-0.00011573,-0.000011
 44,0.00034234,0.00011411,-0.00003184,-0.00000600,0.00004524,-0.0000406
 0,0.00012487,-0.00032751,0.00044378,0.00099512,0.00415757,-0.00088810,
 -0.00429613,-0.00576034,-0.00825531,-0.03219841,-0.12075165,-0.2645321
 4,-0.00000873,0.00001201,0.00000200,-0.00000369,0.00001150,-0.00002251
 ,0.00000559,-0.00000263,0.00001146,0.00002327,0.00002289,-0.00000485,0
 .00001394,0.00001628,-0.00000748,-0.00001057,-0.00000721,0.00000335,-0
 .00000362,-0.00001086,0.00000502,-0.00000151,-0.00000444,0.00000951,0.
 00009095,-0.00001806,-0.00001726,-0.00008179,0.00001089,-0.00000320,0.
 00075897,-0.00016430,0.00054184,-0.00061287,0.00037988,0.00012423,-0.0
 0086607,-0.00503864,0.00315051,0.03515760,0.13470120,0.27894273,-0.000
 01889,-0.00001019,0.00000693,0.00010023,0.00006101,-0.00003610,-0.0000
 1995,-0.00002529,0.00001674,0.00003977,0.00002837,-0.00009552,0.000710
 20,0.00002678,0.00006672,0.00294974,0.00664480,-0.00041554,-0.01517733
 ,0.00241389,-0.01411152,-0.24457647,0.05416221,-0.12572303,-0.00001710
 ,-0.00001003,0.00000069,0.00000670,0.00001270,-0.00000828,0.00000881,0
 .00000303,0.00000184,-0.00000824,-0.00000572,0.00000213,-0.00001516,-0
 .00001326,0.00003118,-0.00000024,-0.00009684,0.00004004,-0.00001252,-0
 .00000682,0.00002603,-0.00004309,-0.00001794,0.00001337,-0.00004844,-0
 .00011082,0.00007561,-0.00007855,0.00000779,0.00002314,0.00028005,-0.0
 0019318,0.00022717,-0.00183359,0.00060325,-0.00043855,-0.00082770,-0.0
 0311258,0.00211273,-0.00018335,0.00161196,0.00055296,0.25876513,-0.000
 00327,-0.00000364,-0.00002028,0.00009891,-0.00028908,0.00009477,0.0008
 8774,0.00026637,-0.00035567,0.00002090,0.00027560,-0.00002433,0.001000
 29,-0.00112616,0.00169175,0.00556985,0.00648003,-0.00714035,0.01890039
 ,-0.00166900,0.01159165,0.05129343,-0.05370580,0.01985213,0.00000807,0
 .00001429,0.00000431,-0.00000304,-0.00000108,-0.00000035,0.00000059,-0
 .00000181,0.00001200,0.00010406,0.00004977,-0.00001851,0.00001335,0.00
 001948,-0.00003427,-0.00004513,-0.00003863,0.00001644,-0.00000010,-0.0
 0005086,-0.00002762,0.00001157,-0.00003946,0.00001290,0.00000876,-0.00
 004837,0.00008623,0.00002426,-0.00002973,-0.00013720,-0.00006089,-0.00
 000117,0.00026860,-0.00141636,0.00032731,-0.00024836,-0.00327364,-0.00
 381060,0.00319885,-0.01116661,0.00440850,-0.00725408,-0.06197313,0.048
 97404,0.00000782,-0.00000447,0.00000029,-0.00002988,0.00006879,-0.0000
 3898,-0.00022332,-0.00002122,0.00010081,-0.00001891,-0.00012457,0.0000
 4598,-0.00053774,0.00046589,-0.00021474,-0.00194724,-0.00599157,0.0021
 8533,0.01172836,-0.00408079,0.00803728,-0.12971999,0.02229385,-0.12891
 736,-0.00000845,0.00000123,0.00000405,-0.00000005,0.00000563,-0.000011
 10,0.00000832,-0.00000077,0.00000470,-0.00002984,-0.00000759,0.0000005
 3,0.00000471,0.00000248,0.00000949,0.00001129,0.00005731,-0.00002301,0
 .00000683,0.00002301,0.00000765,0.00001071,0.00002206,-0.00001424,0.00
 003094,0.00007600,-0.00011531,-0.00006708,-0.00001439,0.00008772,0.000
 33150,0.00012214,0.00038241,0.00131499,-0.00031874,0.00064549,0.001874
 74,0.00331484,-0.00059011,-0.02037899,0.00567950,-0.00943047,0.1376312
 6,-0.02156862,0.12784358\\0.00000105,-0.00000478,-0.00000635,0.0000005
 6,0.00000128,-0.00000645,0.00000622,-0.00000057,0.00001557,-0.00000202
 ,-0.00000718,-0.00000060,-0.00001146,0.00000404,-0.00000909,0.00000017
 ,0.00000082,0.00000459,-0.00000112,0.00000442,-0.00000135,0.00000577,0
 .00000669,-0.00000516,0.00000358,-0.00000348,-0.00000474,0.00000361,-0
 .00000165,-0.00000469,0.00000206,0.00000066,-0.00000332,-0.00000095,-0
 .00000333,0.00000366,0.00000130,-0.00000767,0.00000012,-0.00000355,0.0
 0000044,0.00000576,-0.00000210,-0.00000199,0.00000638,-0.00000328,-0.0
 0000086,0.00000759,0.00000125,-0.00000136,-0.00000179,0.00000144,-0.00
 000272,0.00000257,-0.00000062,0.00000471,-0.00000001,-0.00000112,0.000
 00366,0.00000143,-0.00000165,-0.00000240,0.00000241,0.00000014,0.00000
 653,-0.00000346,0.00000073,0.00000474,-0.00000306\\\@


 OF ALL THE WONDERS OF THE UNIVERSE, THE GREATEST IS MAN.

                                    -- ARISTOTLE
 Job cpu time:       0 days  0 hours 34 minutes 13.0 seconds.
 File lengths (MBytes):  RWF=    172 Int=      0 D2E=      0 Chk=      6 Scr=      1
 Normal termination of Gaussian 09 at Mon Dec  7 03:43:56 2020.
